
     Program BANDS v.6.7MaX starts on  5Dec2025 at 15:22: 4 

     This program is part of the open-source Quantum ESPRESSO suite
     for quantum simulation of materials; please cite
         "P. Giannozzi et al., J. Phys.:Condens. Matter 21 395502 (2009);
         "P. Giannozzi et al., J. Phys.:Condens. Matter 29 465901 (2017);
          URL http://www.quantum-espresso.org", 
     in publications or presentations arising from this work. More details at
     http://www.quantum-espresso.org/quote

     Parallel version (MPI), running on     1 processors

     MPI processes distributed on     1 nodes

     Reading xml data from directory:

     ./cumulene.save/
     file C.pbe-n-kjpaw_psl.0.1.UPF: wavefunction(s)  2P renormalized

     IMPORTANT: XC functional enforced from input :
     Exchange-correlation= PBE
                           (   1   4   3   4   0   0   0)
     Any further DFT definition will be discarded
     Please, verify this is what you really want


     G-vector sticks info
     --------------------
     sticks:   dense  smooth     PW     G-vecs:    dense   smooth      PW
     Sum         899     899    275                36359    36359    6143


     Check: negative core charge=   -0.000012

     negative rho (up, down):  1.838E-04 0.000E+00
     Reading collected, re-writing distributed wavefunctions
     high-symmetry point:  0.0000 0.0000 0.0000   x coordinate   0.0000
     high-symmetry point:  0.5000 0.0000 0.0000   x coordinate   0.5000

     Plottable bands (eV) written to file cumulene.bands.dat.gnu
     Bands written to file cumulene.bands.dat

 **************************************************************************

                    xk=(   0.00000,   0.00000,   0.00000  )

     point group C_2v (mm2) 
     there are  4 classes
     the character table:

       E     C2    s_v   s_v' 
A_1    1.00  1.00  1.00  1.00
A_2    1.00  1.00 -1.00 -1.00
B_1    1.00 -1.00  1.00 -1.00
B_2    1.00 -1.00 -1.00  1.00

     the symmetry operations in each class and the name of the first element:

     E        1
                                                                 
     C2       2
                                                                 
     s_v      3
                                                                 
     s_v'     4
                                                                 

     Band symmetry, C_2v (mm2)  point group:

     e(  1 -  1) =    -19.46271  eV     1   --> A_1  D_1  S_1  
     e(  2 -  2) =    -12.91946  eV     1   --> A_1  D_1  S_1  
     e(  3 -  3) =     -7.58403  eV     1   --> B_2  D_4  S_4  
     e(  4 -  4) =     -7.28818  eV     1   --> A_1  D_1  S_1  
     e(  5 -  5) =     -7.23882  eV     1   --> B_1  D_3  S_3  
     e(  6 -  6) =      0.31111  eV     1   --> A_1  D_1  S_1  
     e(  7 -  7) =      1.77592  eV     1   --> B_2  D_4  S_4  
     e(  8 -  8) =      1.83867  eV     1   --> A_1  D_1  S_1  
     e(  9 -  9) =      1.88633  eV     1   -->   ?

 **************************************************************************

 **************************************************************************

                    xk=(   0.00500,   0.00000,   0.00000  )

     point group C_s (m)    
     there are  2 classes
     the character table:

       E     s    
A'     1.00  1.00
A''    1.00 -1.00

     the symmetry operations in each class and the name of the first element:

     E        1
                                                                 
     s        2
                                                                 

     Band symmetry, C_s (m)     point group:

     e(  1 -  1) =    -19.46229  eV     1   --> A'             
     e(  2 -  2) =    -12.91912  eV     1   --> A'             
     e(  3 -  3) =     -7.58349  eV     1   --> A''            
     e(  4 -  4) =     -7.28831  eV     1   --> A'             
     e(  5 -  5) =     -7.24066  eV     1   --> A'             
     e(  6 -  6) =      0.31163  eV     1   --> A'             
     e(  7 -  7) =      1.77620  eV     1   --> A''            
     e(  8 -  8) =      1.83925  eV     1   --> A'             
     e(  9 -  9) =      1.88684  eV     1   -->   ?

 **************************************************************************

 **************************************************************************

                    xk=(   0.01000,   0.00000,   0.00000  )

     Band symmetry, C_s (m)     point group:

     e(  1 -  1) =    -19.46101  eV     1   --> A'             
     e(  2 -  2) =    -12.91799  eV     1   --> A'             
     e(  3 -  3) =     -7.58184  eV     1   --> A''            
     e(  4 -  4) =     -7.28837  eV     1   --> A'             
     e(  5 -  5) =     -7.24618  eV     1   --> A'             
     e(  6 -  6) =      0.31323  eV     1   --> A'             
     e(  7 -  7) =      1.77702  eV     1   --> A''            
     e(  8 -  8) =      1.84111  eV     1   --> A'             
     e(  9 -  9) =      1.88792  eV     1   --> A'             

 **************************************************************************

 **************************************************************************

                    xk=(   0.01500,   0.00000,   0.00000  )

     Band symmetry, C_s (m)     point group:

     e(  1 -  1) =    -19.45889  eV     1   --> A'             
     e(  2 -  2) =    -12.91613  eV     1   --> A'             
     e(  3 -  3) =     -7.57911  eV     1   --> A''            
     e(  4 -  4) =     -7.28849  eV     1   --> A'             
     e(  5 -  5) =     -7.25536  eV     1   --> A'             
     e(  6 -  6) =      0.31587  eV     1   --> A'             
     e(  7 -  7) =      1.77845  eV     1   --> A''            
     e(  8 -  8) =      1.84422  eV     1   --> A'             
     e(  9 -  9) =      1.89153  eV     1   -->   ?

 **************************************************************************

 **************************************************************************

                    xk=(   0.02000,   0.00000,   0.00000  )

     Band symmetry, C_s (m)     point group:

     e(  1 -  1) =    -19.45592  eV     1   --> A'             
     e(  2 -  2) =    -12.91351  eV     1   --> A'             
     e(  3 -  3) =     -7.57528  eV     1   --> A''            
     e(  4 -  4) =     -7.28866  eV     1   --> A'             
     e(  5 -  5) =     -7.26818  eV     1   --> A'             
     e(  6 -  6) =      0.31958  eV     1   --> A'             
     e(  7 -  7) =      1.78044  eV     1   --> A''            
     e(  8 -  8) =      1.84863  eV     1   --> A'             
     e(  9 -  9) =      1.89585  eV     1   -->   ?

 **************************************************************************

 **************************************************************************

                    xk=(   0.02500,   0.00000,   0.00000  )

     Band symmetry, C_s (m)     point group:

     e(  1 -  1) =    -19.45209  eV     1   --> A'             
     e(  2 -  2) =    -12.91016  eV     1   --> A'             
     e(  3 -  3) =     -7.57035  eV     1   --> A''            
     e(  4 -  4) =     -7.28888  eV     1   --> A'             
     e(  5 -  5) =     -7.28460  eV     1   --> A'             
     e(  6 -  6) =      0.32435  eV     1   --> A'             
     e(  7 -  7) =      1.78296  eV     1   --> A''            
     e(  8 -  8) =      1.85428  eV     1   -->   ?
     e(  9 -  9) =      1.89963  eV     1   -->   ?

 **************************************************************************

 **************************************************************************

                    xk=(   0.03000,   0.00000,   0.00000  )

     Band symmetry, C_s (m)     point group:

     e(  1 -  1) =    -19.44742  eV     1   --> A'             
     e(  2 -  2) =    -12.90606  eV     1   --> A'             
     e(  3 -  3) =     -7.56433  eV     1   --> A''            
     e(  4 -  4) =     -7.30460  eV     1   --> A'             
     e(  5 -  5) =     -7.28915  eV     1   --> A'             
     e(  6 -  6) =      0.33019  eV     1   --> A'             
     e(  7 -  7) =      1.78616  eV     1   --> A''            
     e(  8 -  8) =      1.86094  eV     1   --> A'             
     e(  9 -  9) =      1.90587  eV     1   -->   ?

 **************************************************************************

 **************************************************************************

                    xk=(   0.03500,   0.00000,   0.00000  )

     Band symmetry, C_s (m)     point group:

     e(  1 -  1) =    -19.44190  eV     1   --> A'             
     e(  2 -  2) =    -12.90129  eV     1   --> A'             
     e(  3 -  3) =     -7.55722  eV     1   --> A''            
     e(  4 -  4) =     -7.32814  eV     1   --> A'             
     e(  5 -  5) =     -7.28954  eV     1   --> A'             
     e(  6 -  6) =      0.33709  eV     1   --> A'             
     e(  7 -  7) =      1.78965  eV     1   --> A''            
     e(  8 -  8) =      1.86898  eV     1   --> A'             
     e(  9 -  9) =      1.91188  eV     1   -->   ?

 **************************************************************************

 **************************************************************************

                    xk=(   0.04000,   0.00000,   0.00000  )

     Band symmetry, C_s (m)     point group:

     e(  1 -  1) =    -19.43552  eV     1   --> A'             
     e(  2 -  2) =    -12.89572  eV     1   --> A'             
     e(  3 -  3) =     -7.54901  eV     1   --> A''            
     e(  4 -  4) =     -7.35512  eV     1   --> A'             
     e(  5 -  5) =     -7.28994  eV     1   --> A'             
     e(  6 -  6) =      0.34499  eV     1   --> A'             
     e(  7 -  7) =      1.79376  eV     1   --> A''            
     e(  8 -  8) =      1.87821  eV     1   --> A'             
     e(  9 -  9) =      1.91997  eV     1   -->   ?

 **************************************************************************

 **************************************************************************

                    xk=(   0.04500,   0.00000,   0.00000  )

     Band symmetry, C_s (m)     point group:

     e(  1 -  1) =    -19.42830  eV     1   --> A'             
     e(  2 -  2) =    -12.88941  eV     1   --> A'             
     e(  3 -  3) =     -7.53972  eV     1   --> A''            
     e(  4 -  4) =     -7.38549  eV     1   --> A'             
     e(  5 -  5) =     -7.29041  eV     1   --> A'             
     e(  6 -  6) =      0.35398  eV     1   --> A'             
     e(  7 -  7) =      1.79841  eV     1   --> A''            
     e(  8 -  8) =      1.88874  eV     1   --> A'             
     e(  9 -  9) =      1.92928  eV     1   -->   ?

 **************************************************************************

 **************************************************************************

                    xk=(   0.05000,   0.00000,   0.00000  )

     Band symmetry, C_s (m)     point group:

     e(  1 -  1) =    -19.42023  eV     1   --> A'             
     e(  2 -  2) =    -12.88236  eV     1   --> A'             
     e(  3 -  3) =     -7.52932  eV     1   --> A''            
     e(  4 -  4) =     -7.41919  eV     1   --> A'             
     e(  5 -  5) =     -7.29096  eV     1   --> A'             
     e(  6 -  6) =      0.36402  eV     1   --> A'             
     e(  7 -  7) =      1.80348  eV     1   --> A''            
     e(  8 -  8) =      1.90037  eV     1   --> A'             
     e(  9 -  9) =      1.93871  eV     1   --> A'             

 **************************************************************************

 **************************************************************************

                    xk=(   0.05500,   0.00000,   0.00000  )

     Band symmetry, C_s (m)     point group:

     e(  1 -  1) =    -19.41130  eV     1   --> A'             
     e(  2 -  2) =    -12.87456  eV     1   --> A'             
     e(  3 -  3) =     -7.51784  eV     1   --> A''            
     e(  4 -  4) =     -7.45614  eV     1   --> A'             
     e(  5 -  5) =     -7.29158  eV     1   --> A'             
     e(  6 -  6) =      0.37511  eV     1   --> A'             
     e(  7 -  7) =      1.80907  eV     1   --> A''            
     e(  8 -  8) =      1.91331  eV     1   --> A'             
     e(  9 -  9) =      1.95011  eV     1   -->   ?

 **************************************************************************

 **************************************************************************

                    xk=(   0.06000,   0.00000,   0.00000  )

     Band symmetry, C_s (m)     point group:

     e(  1 -  1) =    -19.40153  eV     1   --> A'             
     e(  2 -  2) =    -12.86606  eV     1   --> A'             
     e(  3 -  3) =     -7.50527  eV     1   --> A''            
     e(  4 -  4) =     -7.49627  eV     1   --> A'             
     e(  5 -  5) =     -7.29231  eV     1   --> A'             
     e(  6 -  6) =      0.38724  eV     1   --> A'             
     e(  7 -  7) =      1.81507  eV     1   --> A''            
     e(  8 -  8) =      1.92733  eV     1   --> A'             
     e(  9 -  9) =      1.96223  eV     1   -->   ?

 **************************************************************************

 **************************************************************************

                    xk=(   0.06500,   0.00000,   0.00000  )

     Band symmetry, C_s (m)     point group:

     e(  1 -  1) =    -19.39091  eV     1   --> A'             
     e(  2 -  2) =    -12.85684  eV     1   --> A'             
     e(  3 -  3) =     -7.53948  eV     1   --> A'             
     e(  4 -  4) =     -7.49160  eV     1   --> A''            
     e(  5 -  5) =     -7.29315  eV     1   --> A'             
     e(  6 -  6) =      0.40042  eV     1   --> A'             
     e(  7 -  7) =      1.82149  eV     1   --> A''            
     e(  8 -  8) =      1.94261  eV     1   --> A'             
     e(  9 -  9) =      1.97579  eV     1   -->   ?

 **************************************************************************

 **************************************************************************

                    xk=(   0.07000,   0.00000,   0.00000  )

     Band symmetry, C_s (m)     point group:

     e(  1 -  1) =    -19.37945  eV     1   --> A'             
     e(  2 -  2) =    -12.84693  eV     1   --> A'             
     e(  3 -  3) =     -7.58570  eV     1   --> A'             
     e(  4 -  4) =     -7.47684  eV     1   --> A''            
     e(  5 -  5) =     -7.29412  eV     1   --> A'             
     e(  6 -  6) =      0.41464  eV     1   --> A'             
     e(  7 -  7) =      1.82826  eV     1   --> A''            
     e(  8 -  8) =      1.95909  eV     1   --> A'             
     e(  9 -  9) =      1.99095  eV     1   -->   ?

 **************************************************************************

 **************************************************************************

                    xk=(   0.07500,   0.00000,   0.00000  )

     Band symmetry, C_s (m)     point group:

     e(  1 -  1) =    -19.36713  eV     1   --> A'             
     e(  2 -  2) =    -12.83628  eV     1   --> A'             
     e(  3 -  3) =     -7.63479  eV     1   --> A'             
     e(  4 -  4) =     -7.46100  eV     1   --> A''            
     e(  5 -  5) =     -7.29519  eV     1   --> A'             
     e(  6 -  6) =      0.42989  eV     1   --> A'             
     e(  7 -  7) =      1.83542  eV     1   --> A''            
     e(  8 -  8) =      1.97670  eV     1   --> A'             
     e(  9 -  9) =      2.00574  eV     1   -->   ?

 **************************************************************************

 **************************************************************************

                    xk=(   0.08000,   0.00000,   0.00000  )

     Band symmetry, C_s (m)     point group:

     e(  1 -  1) =    -19.35397  eV     1   --> A'             
     e(  2 -  2) =    -12.82492  eV     1   --> A'             
     e(  3 -  3) =     -7.68669  eV     1   --> A'             
     e(  4 -  4) =     -7.44406  eV     1   --> A''            
     e(  5 -  5) =     -7.29641  eV     1   --> A'             
     e(  6 -  6) =      0.44619  eV     1   --> A'             
     e(  7 -  7) =      1.84287  eV     1   --> A''            
     e(  8 -  8) =      1.99550  eV     1   --> A'             
     e(  9 -  9) =      2.02218  eV     1   -->   ?

 **************************************************************************

 **************************************************************************

                    xk=(   0.08500,   0.00000,   0.00000  )

     Band symmetry, C_s (m)     point group:

     e(  1 -  1) =    -19.33996  eV     1   --> A'             
     e(  2 -  2) =    -12.81285  eV     1   --> A'             
     e(  3 -  3) =     -7.74127  eV     1   --> A'             
     e(  4 -  4) =     -7.42604  eV     1   --> A''            
     e(  5 -  5) =     -7.29776  eV     1   --> A'             
     e(  6 -  6) =      0.46345  eV     1   --> A'             
     e(  7 -  7) =      1.85083  eV     1   --> A''            
     e(  8 -  8) =      2.01565  eV     1   -->   ?
     e(  9 -  9) =      2.03865  eV     1   -->   ?

 **************************************************************************

 **************************************************************************

                    xk=(   0.09000,   0.00000,   0.00000  )

     Band symmetry, C_s (m)     point group:

     e(  1 -  1) =    -19.32511  eV     1   --> A'             
     e(  2 -  2) =    -12.80010  eV     1   --> A'             
     e(  3 -  3) =     -7.79845  eV     1   --> A'             
     e(  4 -  4) =     -7.40693  eV     1   --> A''            
     e(  5 -  5) =     -7.29929  eV     1   --> A'             
     e(  6 -  6) =      0.48176  eV     1   --> A'             
     e(  7 -  7) =      1.85862  eV     1   --> A''            
     e(  8 -  8) =      2.03646  eV     1   --> A'             
     e(  9 -  9) =      2.05852  eV     1   -->   ?

 **************************************************************************

 **************************************************************************

                    xk=(   0.09500,   0.00000,   0.00000  )

     Band symmetry, C_s (m)     point group:

     e(  1 -  1) =    -19.30940  eV     1   --> A'             
     e(  2 -  2) =    -12.78668  eV     1   --> A'             
     e(  3 -  3) =     -7.85813  eV     1   --> A'             
     e(  4 -  4) =     -7.38674  eV     1   --> A''            
     e(  5 -  5) =     -7.30102  eV     1   --> A'             
     e(  6 -  6) =      0.50112  eV     1   --> A'             
     e(  7 -  7) =      1.86661  eV     1   --> A''            
     e(  8 -  8) =      2.05877  eV     1   --> A'             
     e(  9 -  9) =      2.07761  eV     1   -->   ?

 **************************************************************************

 **************************************************************************

                    xk=(   0.10000,   0.00000,   0.00000  )

     Band symmetry, C_s (m)     point group:

     e(  1 -  1) =    -19.29283  eV     1   --> A'             
     e(  2 -  2) =    -12.77245  eV     1   --> A'             
     e(  3 -  3) =     -7.92016  eV     1   --> A'             
     e(  4 -  4) =     -7.36546  eV     1   --> A''            
     e(  5 -  5) =     -7.30280  eV     1   --> A'             
     e(  6 -  6) =      0.52146  eV     1   --> A'             
     e(  7 -  7) =      1.87479  eV     1   --> A''            
     e(  8 -  8) =      2.08216  eV     1   --> A'             
     e(  9 -  9) =      2.09723  eV     1   -->   ?

 **************************************************************************

 **************************************************************************

                    xk=(   0.10500,   0.00000,   0.00000  )

     Band symmetry, C_s (m)     point group:

     e(  1 -  1) =    -19.27544  eV     1   --> A'             
     e(  2 -  2) =    -12.75766  eV     1   --> A'             
     e(  3 -  3) =     -7.98448  eV     1   --> A'             
     e(  4 -  4) =     -7.34309  eV     1   --> A''            
     e(  5 -  5) =     -7.30489  eV     1   --> A'             
     e(  6 -  6) =      0.54283  eV     1   --> A'             
     e(  7 -  7) =      1.88310  eV     1   --> A''            
     e(  8 -  8) =      2.10663  eV     1   --> A'             
     e(  9 -  9) =      2.12008  eV     1   -->   ?

 **************************************************************************

 **************************************************************************

                    xk=(   0.11000,   0.00000,   0.00000  )

     Band symmetry, C_s (m)     point group:

     e(  1 -  1) =    -19.25720  eV     1   --> A'             
     e(  2 -  2) =    -12.74216  eV     1   --> A'             
     e(  3 -  3) =     -8.05096  eV     1   --> A'             
     e(  4 -  4) =     -7.31965  eV     1   --> A''            
     e(  5 -  5) =     -7.30720  eV     1   --> A'             
     e(  6 -  6) =      0.56517  eV     1   --> A'             
     e(  7 -  7) =      1.89143  eV     1   --> A''            
     e(  8 -  8) =      2.13221  eV     1   --> A'             
     e(  9 -  9) =      2.14094  eV     1   -->   ?

 **************************************************************************

 **************************************************************************

                    xk=(   0.11500,   0.00000,   0.00000  )

     Band symmetry, C_s (m)     point group:

     e(  1 -  1) =    -19.23812  eV     1   --> A'             
     e(  2 -  2) =    -12.72606  eV     1   --> A'             
     e(  3 -  3) =     -8.11950  eV     1   --> A'             
     e(  4 -  4) =     -7.30975  eV     1   --> A'             
     e(  5 -  5) =     -7.29512  eV     1   --> A''            
     e(  6 -  6) =      0.58853  eV     1   --> A'             
     e(  7 -  7) =      1.89965  eV     1   --> A''            
     e(  8 -  8) =      2.15896  eV     1   --> A'             
     e(  9 -  9) =      2.16548  eV     1   -->   ?

 **************************************************************************

 **************************************************************************

                    xk=(   0.12000,   0.00000,   0.00000  )

     Band symmetry, C_s (m)     point group:

     e(  1 -  1) =    -19.21821  eV     1   --> A'             
     e(  2 -  2) =    -12.70935  eV     1   --> A'             
     e(  3 -  3) =     -8.19001  eV     1   --> A'             
     e(  4 -  4) =     -7.31259  eV     1   --> A'             
     e(  5 -  5) =     -7.26951  eV     1   --> A''            
     e(  6 -  6) =      0.61283  eV     1   --> A'             
     e(  7 -  7) =      1.90777  eV     1   --> A''            
     e(  8 -  8) =      2.18686  eV     1   --> A'             
     e(  9 -  9) =      2.18957  eV     1   -->   ?

 **************************************************************************

 **************************************************************************

                    xk=(   0.12500,   0.00000,   0.00000  )

     Band symmetry, C_s (m)     point group:

     e(  1 -  1) =    -19.19744  eV     1   --> A'             
     e(  2 -  2) =    -12.69200  eV     1   --> A'             
     e(  3 -  3) =     -8.26234  eV     1   --> A'             
     e(  4 -  4) =     -7.31565  eV     1   --> A'             
     e(  5 -  5) =     -7.24283  eV     1   --> A''            
     e(  6 -  6) =      0.63816  eV     1   --> A'             
     e(  7 -  7) =      1.91555  eV     1   --> A''            
     e(  8 -  8) =      2.21492  eV     1   -->   ?
     e(  9 -  9) =      2.21617  eV     1   -->   ?

 **************************************************************************

 **************************************************************************

                    xk=(   0.13000,   0.00000,   0.00000  )

     Band symmetry, C_s (m)     point group:

     e(  1 -  1) =    -19.17583  eV     1   --> A'             
     e(  2 -  2) =    -12.67403  eV     1   --> A'             
     e(  3 -  3) =     -8.33642  eV     1   --> A'             
     e(  4 -  4) =     -7.31904  eV     1   --> A'             
     e(  5 -  5) =     -7.21506  eV     1   --> A''            
     e(  6 -  6) =      0.66441  eV     1   --> A'             
     e(  7 -  7) =      1.92317  eV     1   --> A''            
     e(  8 -  8) =      2.24188  eV     1   -->   ?
     e(  9 -  9) =      2.24601  eV     1   --> A'             

 **************************************************************************

 **************************************************************************

                    xk=(   0.13500,   0.00000,   0.00000  )

     Band symmetry, C_s (m)     point group:

     e(  1 -  1) =    -19.15335  eV     1   --> A'             
     e(  2 -  2) =    -12.65546  eV     1   --> A'             
     e(  3 -  3) =     -8.41211  eV     1   --> A'             
     e(  4 -  4) =     -7.32269  eV     1   --> A'             
     e(  5 -  5) =     -7.18621  eV     1   --> A''            
     e(  6 -  6) =      0.69165  eV     1   --> A'             
     e(  7 -  7) =      1.93035  eV     1   --> A''            
     e(  8 -  8) =      2.26856  eV     1   -->   ?
     e(  9 -  9) =      2.27716  eV     1   --> A'             

 **************************************************************************

 **************************************************************************

                    xk=(   0.14000,   0.00000,   0.00000  )

     Band symmetry, C_s (m)     point group:

     e(  1 -  1) =    -19.13007  eV     1   --> A'             
     e(  2 -  2) =    -12.63637  eV     1   --> A'             
     e(  3 -  3) =     -8.48933  eV     1   --> A'             
     e(  4 -  4) =     -7.32674  eV     1   --> A'             
     e(  5 -  5) =     -7.15630  eV     1   --> A''            
     e(  6 -  6) =      0.71983  eV     1   --> A'             
     e(  7 -  7) =      1.93705  eV     1   --> A''            
     e(  8 -  8) =      2.29803  eV     1   -->   ?
     e(  9 -  9) =      2.30953  eV     1   -->   ?

 **************************************************************************

 **************************************************************************

                    xk=(   0.14500,   0.00000,   0.00000  )

     Band symmetry, C_s (m)     point group:

     e(  1 -  1) =    -19.10594  eV     1   --> A'             
     e(  2 -  2) =    -12.61664  eV     1   --> A'             
     e(  3 -  3) =     -8.56796  eV     1   --> A'             
     e(  4 -  4) =     -7.33107  eV     1   --> A'             
     e(  5 -  5) =     -7.12531  eV     1   --> A''            
     e(  6 -  6) =      0.74897  eV     1   --> A'             
     e(  7 -  7) =      1.94317  eV     1   --> A''            
     e(  8 -  8) =      2.32851  eV     1   -->   ?
     e(  9 -  9) =      2.34295  eV     1   --> A'             

 **************************************************************************

 **************************************************************************

                    xk=(   0.15000,   0.00000,   0.00000  )

     Band symmetry, C_s (m)     point group:

     e(  1 -  1) =    -19.08097  eV     1   --> A'             
     e(  2 -  2) =    -12.59640  eV     1   --> A'             
     e(  3 -  3) =     -8.64789  eV     1   --> A'             
     e(  4 -  4) =     -7.33579  eV     1   --> A'             
     e(  5 -  5) =     -7.09325  eV     1   --> A''            
     e(  6 -  6) =      0.77904  eV     1   --> A'             
     e(  7 -  7) =      1.94874  eV     1   --> A''            
     e(  8 -  8) =      2.35716  eV     1   -->   ?
     e(  9 -  9) =      2.37737  eV     1   --> A'             

 **************************************************************************

 **************************************************************************

                    xk=(   0.15500,   0.00000,   0.00000  )

     Band symmetry, C_s (m)     point group:

     e(  1 -  1) =    -19.05516  eV     1   --> A'             
     e(  2 -  2) =    -12.57563  eV     1   --> A'             
     e(  3 -  3) =     -8.72901  eV     1   --> A'             
     e(  4 -  4) =     -7.34087  eV     1   --> A'             
     e(  5 -  5) =     -7.06012  eV     1   --> A''            
     e(  6 -  6) =      0.81004  eV     1   --> A'             
     e(  7 -  7) =      1.95333  eV     1   --> A''            
     e(  8 -  8) =      2.38870  eV     1   -->   ?
     e(  9 -  9) =      2.41296  eV     1   --> A'             

 **************************************************************************

 **************************************************************************

                    xk=(   0.16000,   0.00000,   0.00000  )

     Band symmetry, C_s (m)     point group:

     e(  1 -  1) =    -19.02852  eV     1   --> A'             
     e(  2 -  2) =    -12.55440  eV     1   --> A'             
     e(  3 -  3) =     -8.81124  eV     1   --> A'             
     e(  4 -  4) =     -7.34641  eV     1   --> A'             
     e(  5 -  5) =     -7.02593  eV     1   --> A''            
     e(  6 -  6) =      0.84195  eV     1   --> A'             
     e(  7 -  7) =      1.95703  eV     1   --> A''            
     e(  8 -  8) =      2.42087  eV     1   --> A'             
     e(  9 -  9) =      2.44970  eV     1   --> A'             

 **************************************************************************

 **************************************************************************

                    xk=(   0.16500,   0.00000,   0.00000  )

     Band symmetry, C_s (m)     point group:

     e(  1 -  1) =    -19.00104  eV     1   --> A'             
     e(  2 -  2) =    -12.53269  eV     1   --> A'             
     e(  3 -  3) =     -8.89445  eV     1   --> A'             
     e(  4 -  4) =     -7.35236  eV     1   --> A'             
     e(  5 -  5) =     -6.99067  eV     1   --> A''            
     e(  6 -  6) =      0.87476  eV     1   --> A'             
     e(  7 -  7) =      1.95977  eV     1   --> A''            
     e(  8 -  8) =      2.45512  eV     1   -->   ?
     e(  9 -  9) =      2.48747  eV     1   -->   ?

 **************************************************************************

 **************************************************************************

                    xk=(   0.17000,   0.00000,   0.00000  )

     Band symmetry, C_s (m)     point group:

     e(  1 -  1) =    -18.97274  eV     1   --> A'             
     e(  2 -  2) =    -12.51056  eV     1   --> A'             
     e(  3 -  3) =     -8.97854  eV     1   --> A'             
     e(  4 -  4) =     -7.35878  eV     1   --> A'             
     e(  5 -  5) =     -6.95434  eV     1   --> A''            
     e(  6 -  6) =      0.90846  eV     1   --> A'             
     e(  7 -  7) =      1.96131  eV     1   --> A''            
     e(  8 -  8) =      2.48868  eV     1   --> A'             
     e(  9 -  9) =      2.52623  eV     1   --> A'             

 **************************************************************************

 **************************************************************************

                    xk=(   0.17500,   0.00000,   0.00000  )

     Band symmetry, C_s (m)     point group:

     e(  1 -  1) =    -18.94357  eV     1   --> A'             
     e(  2 -  2) =    -12.48802  eV     1   --> A'             
     e(  3 -  3) =     -9.06340  eV     1   --> A'             
     e(  4 -  4) =     -7.36557  eV     1   --> A'             
     e(  5 -  5) =     -6.91695  eV     1   --> A''            
     e(  6 -  6) =      0.94304  eV     1   --> A'             
     e(  7 -  7) =      1.96148  eV     1   --> A''            
     e(  8 -  8) =      2.52409  eV     1   --> A'             
     e(  9 -  9) =      2.56622  eV     1   --> A'             

 **************************************************************************

 **************************************************************************

                    xk=(   0.18000,   0.00000,   0.00000  )

     Band symmetry, C_s (m)     point group:

     e(  1 -  1) =    -18.91359  eV     1   --> A'             
     e(  2 -  2) =    -12.46515  eV     1   --> A'             
     e(  3 -  3) =     -9.14892  eV     1   --> A'             
     e(  4 -  4) =     -7.37294  eV     1   --> A'             
     e(  5 -  5) =     -6.87851  eV     1   --> A''            
     e(  6 -  6) =      0.97850  eV     1   --> A'             
     e(  7 -  7) =      1.96034  eV     1   --> A''            
     e(  8 -  8) =      2.56200  eV     1   -->   ?
     e(  9 -  9) =      2.60721  eV     1   --> A'             

 **************************************************************************

 **************************************************************************

                    xk=(   0.18500,   0.00000,   0.00000  )

     Band symmetry, C_s (m)     point group:

     e(  1 -  1) =    -18.88277  eV     1   --> A'             
     e(  2 -  2) =    -12.44198  eV     1   --> A'             
     e(  3 -  3) =     -9.23498  eV     1   --> A'             
     e(  4 -  4) =     -7.38083  eV     1   --> A'             
     e(  5 -  5) =     -6.83900  eV     1   --> A''            
     e(  6 -  6) =      1.01481  eV     1   --> A'             
     e(  7 -  7) =      1.95744  eV     1   --> A''            
     e(  8 -  8) =      2.59834  eV     1   -->   ?
     e(  9 -  9) =      2.64936  eV     1   --> A'             

 **************************************************************************

 **************************************************************************

                    xk=(   0.19000,   0.00000,   0.00000  )

     Band symmetry, C_s (m)     point group:

     e(  1 -  1) =    -18.85112  eV     1   --> A'             
     e(  2 -  2) =    -12.41857  eV     1   --> A'             
     e(  3 -  3) =     -9.32148  eV     1   --> A'             
     e(  4 -  4) =     -7.38926  eV     1   --> A'             
     e(  5 -  5) =     -6.79845  eV     1   --> A''            
     e(  6 -  6) =      1.05193  eV     1   --> A'             
     e(  7 -  7) =      1.95288  eV     1   --> A''            
     e(  8 -  8) =      2.63605  eV     1   -->   ?
     e(  9 -  9) =      2.69242  eV     1   --> A'             

 **************************************************************************

 **************************************************************************

                    xk=(   0.19500,   0.00000,   0.00000  )

     Band symmetry, C_s (m)     point group:

     e(  1 -  1) =    -18.81866  eV     1   --> A'             
     e(  2 -  2) =    -12.39501  eV     1   --> A'             
     e(  3 -  3) =     -9.40828  eV     1   --> A'             
     e(  4 -  4) =     -7.39827  eV     1   --> A'             
     e(  5 -  5) =     -6.75684  eV     1   --> A''            
     e(  6 -  6) =      1.08991  eV     1   --> A'             
     e(  7 -  7) =      1.94647  eV     1   --> A''            
     e(  8 -  8) =      2.67546  eV     1   -->   ?
     e(  9 -  9) =      2.73671  eV     1   --> A'             

 **************************************************************************

 **************************************************************************

                    xk=(   0.20000,   0.00000,   0.00000  )

     Band symmetry, C_s (m)     point group:

     e(  1 -  1) =    -18.78535  eV     1   --> A'             
     e(  2 -  2) =    -12.37131  eV     1   --> A'             
     e(  3 -  3) =     -9.49525  eV     1   --> A'             
     e(  4 -  4) =     -7.40784  eV     1   --> A'             
     e(  5 -  5) =     -6.71418  eV     1   --> A''            
     e(  6 -  6) =      1.12870  eV     1   --> A'             
     e(  7 -  7) =      1.93799  eV     1   --> A''            
     e(  8 -  8) =      2.71593  eV     1   -->   ?
     e(  9 -  9) =      2.78211  eV     1   --> A'             

 **************************************************************************

 **************************************************************************

                    xk=(   0.20500,   0.00000,   0.00000  )

     Band symmetry, C_s (m)     point group:

     e(  1 -  1) =    -18.75121  eV     1   --> A'             
     e(  2 -  2) =    -12.34758  eV     1   --> A'             
     e(  3 -  3) =     -9.58225  eV     1   --> A'             
     e(  4 -  4) =     -7.41797  eV     1   --> A'             
     e(  5 -  5) =     -6.67047  eV     1   --> A''            
     e(  6 -  6) =      1.16831  eV     1   --> A'             
     e(  7 -  7) =      1.92732  eV     1   --> A''            
     e(  8 -  8) =      2.75645  eV     1   -->   ?
     e(  9 -  9) =      2.82842  eV     1   --> A'             

 **************************************************************************

 **************************************************************************

                    xk=(   0.21000,   0.00000,   0.00000  )

     Band symmetry, C_s (m)     point group:

     e(  1 -  1) =    -18.71625  eV     1   --> A'             
     e(  2 -  2) =    -12.32393  eV     1   --> A'             
     e(  3 -  3) =     -9.66913  eV     1   --> A'             
     e(  4 -  4) =     -7.42878  eV     1   --> A'             
     e(  5 -  5) =     -6.62571  eV     1   --> A''            
     e(  6 -  6) =      1.20867  eV     1   --> A'             
     e(  7 -  7) =      1.91435  eV     1   --> A''            
     e(  8 -  8) =      2.79848  eV     1   -->   ?
     e(  9 -  9) =      2.87599  eV     1   --> A'             

 **************************************************************************

 **************************************************************************

                    xk=(   0.21500,   0.00000,   0.00000  )

     Band symmetry, C_s (m)     point group:

     e(  1 -  1) =    -18.68048  eV     1   --> A'             
     e(  2 -  2) =    -12.30057  eV     1   --> A'             
     e(  3 -  3) =     -9.75574  eV     1   --> A'             
     e(  4 -  4) =     -7.44026  eV     1   --> A'             
     e(  5 -  5) =     -6.57992  eV     1   --> A''            
     e(  6 -  6) =      1.24993  eV     1   --> A'             
     e(  7 -  7) =      1.89886  eV     1   --> A''            
     e(  8 -  8) =      2.84243  eV     1   -->   ?
     e(  9 -  9) =      2.92446  eV     1   --> A'             

 **************************************************************************

 **************************************************************************

                    xk=(   0.22000,   0.00000,   0.00000  )

     Band symmetry, C_s (m)     point group:

     e(  1 -  1) =    -18.64386  eV     1   --> A'             
     e(  2 -  2) =    -12.27740  eV     1   --> A'             
     e(  3 -  3) =     -9.84187  eV     1   --> A'             
     e(  4 -  4) =     -7.45234  eV     1   --> A'             
     e(  5 -  5) =     -6.53309  eV     1   --> A''            
     e(  6 -  6) =      1.29171  eV     1   --> A'             
     e(  7 -  7) =      1.88090  eV     1   --> A''            
     e(  8 -  8) =      2.88536  eV     1   -->   ?
     e(  9 -  9) =      2.97394  eV     1   --> A'             

 **************************************************************************

 **************************************************************************

                    xk=(   0.22500,   0.00000,   0.00000  )

     Band symmetry, C_s (m)     point group:

     e(  1 -  1) =    -18.60642  eV     1   --> A'             
     e(  2 -  2) =    -12.25474  eV     1   --> A'             
     e(  3 -  3) =     -9.92733  eV     1   --> A'             
     e(  4 -  4) =     -7.46514  eV     1   --> A'             
     e(  5 -  5) =     -6.48522  eV     1   --> A''            
     e(  6 -  6) =      1.33440  eV     1   --> A'             
     e(  7 -  7) =      1.86029  eV     1   --> A''            
     e(  8 -  8) =      2.93086  eV     1   -->   ?
     e(  9 -  9) =      3.02463  eV     1   --> A'             

 **************************************************************************

 **************************************************************************

                    xk=(   0.23000,   0.00000,   0.00000  )

     Band symmetry, C_s (m)     point group:

     e(  1 -  1) =    -18.56817  eV     1   --> A'             
     e(  2 -  2) =    -12.23274  eV     1   --> A'             
     e(  3 -  3) =    -10.01189  eV     1   --> A'             
     e(  4 -  4) =     -7.47870  eV     1   --> A'             
     e(  5 -  5) =     -6.43632  eV     1   --> A''            
     e(  6 -  6) =      1.37768  eV     1   --> A'             
     e(  7 -  7) =      1.83669  eV     1   --> A''            
     e(  8 -  8) =      2.97605  eV     1   -->   ?
     e(  9 -  9) =      3.07632  eV     1   --> A'             

 **************************************************************************

 **************************************************************************

                    xk=(   0.23500,   0.00000,   0.00000  )

     Band symmetry, C_s (m)     point group:

     e(  1 -  1) =    -18.52910  eV     1   --> A'             
     e(  2 -  2) =    -12.21160  eV     1   --> A'             
     e(  3 -  3) =    -10.09529  eV     1   --> A'             
     e(  4 -  4) =     -7.49293  eV     1   --> A'             
     e(  5 -  5) =     -6.38639  eV     1   --> A''            
     e(  6 -  6) =      1.42177  eV     1   --> A'             
     e(  7 -  7) =      1.81028  eV     1   --> A''            
     e(  8 -  8) =      3.02298  eV     1   -->   ?
     e(  9 -  9) =      3.12939  eV     1   -->   ?

 **************************************************************************

 **************************************************************************

                    xk=(   0.24000,   0.00000,   0.00000  )

     Band symmetry, C_s (m)     point group:

     e(  1 -  1) =    -18.48922  eV     1   --> A'             
     e(  2 -  2) =    -12.19166  eV     1   --> A'             
     e(  3 -  3) =    -10.17722  eV     1   --> A'             
     e(  4 -  4) =     -7.50798  eV     1   --> A'             
     e(  5 -  5) =     -6.33544  eV     1   --> A''            
     e(  6 -  6) =      1.46651  eV     1   --> A'             
     e(  7 -  7) =      1.78094  eV     1   --> A''            
     e(  8 -  8) =      3.07069  eV     1   -->   ?
     e(  9 -  9) =      3.18290  eV     1   --> A'             

 **************************************************************************

 **************************************************************************

                    xk=(   0.24500,   0.00000,   0.00000  )

     Band symmetry, C_s (m)     point group:

     e(  1 -  1) =    -18.44850  eV     1   --> A'             
     e(  2 -  2) =    -12.17314  eV     1   --> A'             
     e(  3 -  3) =    -10.25733  eV     1   --> A'             
     e(  4 -  4) =     -7.52371  eV     1   --> A'             
     e(  5 -  5) =     -6.28346  eV     1   --> A''            
     e(  6 -  6) =      1.51197  eV     1   --> A'             
     e(  7 -  7) =      1.74856  eV     1   --> A''            
     e(  8 -  8) =      3.12027  eV     1   -->   ?
     e(  9 -  9) =      3.23798  eV     1   -->   ?

 **************************************************************************

 **************************************************************************

                    xk=(   0.25000,   0.00000,   0.00000  )

     Band symmetry, C_s (m)     point group:

     e(  1 -  1) =    -18.40697  eV     1   --> A'             
     e(  2 -  2) =    -12.15648  eV     1   --> A'             
     e(  3 -  3) =    -10.33523  eV     1   --> A'             
     e(  4 -  4) =     -7.54024  eV     1   --> A'             
     e(  5 -  5) =     -6.23046  eV     1   --> A''            
     e(  6 -  6) =      1.55810  eV     1   --> A'             
     e(  7 -  7) =      1.71300  eV     1   --> A''            
     e(  8 -  8) =      3.16856  eV     1   -->   ?
     e(  9 -  9) =      3.29385  eV     1   --> A'             

 **************************************************************************

 **************************************************************************

                    xk=(   0.25500,   0.00000,   0.00000  )

     Band symmetry, C_s (m)     point group:

     e(  1 -  1) =    -18.36463  eV     1   --> A'             
     e(  2 -  2) =    -12.14206  eV     1   --> A'             
     e(  3 -  3) =    -10.41043  eV     1   --> A'             
     e(  4 -  4) =     -7.55752  eV     1   --> A'             
     e(  5 -  5) =     -6.17645  eV     1   --> A''            
     e(  6 -  6) =      1.60487  eV     1   --> A'             
     e(  7 -  7) =      1.67444  eV     1   --> A''            
     e(  8 -  8) =      3.21953  eV     1   -->   ?
     e(  9 -  9) =      3.35077  eV     1   --> A'             

 **************************************************************************

 **************************************************************************

                    xk=(   0.26000,   0.00000,   0.00000  )

     Band symmetry, C_s (m)     point group:

     e(  1 -  1) =    -18.32147  eV     1   --> A'             
     e(  2 -  2) =    -12.13040  eV     1   --> A'             
     e(  3 -  3) =    -10.48241  eV     1   --> A'             
     e(  4 -  4) =     -7.57562  eV     1   --> A'             
     e(  5 -  5) =     -6.12143  eV     1   --> A''            
     e(  6 -  6) =      1.63264  eV     1   --> A''            
     e(  7 -  7) =      1.65227  eV     1   --> A'             
     e(  8 -  8) =      3.27048  eV     1   -->   ?
     e(  9 -  9) =      3.40885  eV     1   --> A'             

 **************************************************************************

 **************************************************************************

                    xk=(   0.26500,   0.00000,   0.00000  )

     Band symmetry, C_s (m)     point group:

     e(  1 -  1) =    -18.27751  eV     1   --> A'             
     e(  2 -  2) =    -12.12212  eV     1   --> A'             
     e(  3 -  3) =    -10.55056  eV     1   --> A'             
     e(  4 -  4) =     -7.59457  eV     1   --> A'             
     e(  5 -  5) =     -6.06540  eV     1   --> A''            
     e(  6 -  6) =      1.58779  eV     1   --> A''            
     e(  7 -  7) =      1.70022  eV     1   --> A'             
     e(  8 -  8) =      3.32295  eV     1   -->   ?
     e(  9 -  9) =      3.46801  eV     1   --> A'             

 **************************************************************************

 **************************************************************************

                    xk=(   0.27000,   0.00000,   0.00000  )

     Band symmetry, C_s (m)     point group:

     e(  1 -  1) =    -18.23273  eV     1   --> A'             
     e(  2 -  2) =    -12.11784  eV     1   --> A'             
     e(  3 -  3) =    -10.61420  eV     1   --> A'             
     e(  4 -  4) =     -7.61436  eV     1   --> A'             
     e(  5 -  5) =     -6.00837  eV     1   --> A''            
     e(  6 -  6) =      1.53987  eV     1   --> A''            
     e(  7 -  7) =      1.74888  eV     1   --> A'             
     e(  8 -  8) =      3.37686  eV     1   -->   ?
     e(  9 -  9) =      3.52816  eV     1   --> A'             

 **************************************************************************

 **************************************************************************

                    xk=(   0.27500,   0.00000,   0.00000  )

     Band symmetry, C_s (m)     point group:

     e(  1 -  1) =    -18.18718  eV     1   --> A'             
     e(  2 -  2) =    -12.11836  eV     1   --> A'             
     e(  3 -  3) =    -10.67264  eV     1   --> A'             
     e(  4 -  4) =     -7.63504  eV     1   --> A'             
     e(  5 -  5) =     -5.95034  eV     1   --> A''            
     e(  6 -  6) =      1.48884  eV     1   --> A''            
     e(  7 -  7) =      1.79806  eV     1   --> A'             
     e(  8 -  8) =      3.43113  eV     1   -->   ?
     e(  9 -  9) =      3.58923  eV     1   --> A'             

 **************************************************************************

 **************************************************************************

                    xk=(   0.28000,   0.00000,   0.00000  )

     Band symmetry, C_s (m)     point group:

     e(  1 -  1) =    -18.14080  eV     1   --> A'             
     e(  2 -  2) =    -12.12423  eV     1   --> A'             
     e(  3 -  3) =    -10.72511  eV     1   --> A'             
     e(  4 -  4) =     -7.65661  eV     1   --> A'             
     e(  5 -  5) =     -5.89132  eV     1   --> A''            
     e(  6 -  6) =      1.43485  eV     1   --> A''            
     e(  7 -  7) =      1.84787  eV     1   --> A'             
     e(  8 -  8) =      3.48705  eV     1   -->   ?
     e(  9 -  9) =      3.65146  eV     1   -->   ?

 **************************************************************************

 **************************************************************************

                    xk=(   0.28500,   0.00000,   0.00000  )

     Band symmetry, C_s (m)     point group:

     e(  1 -  1) =    -18.09361  eV     1   --> A'             
     e(  2 -  2) =    -12.13610  eV     1   --> A'             
     e(  3 -  3) =    -10.77093  eV     1   --> A'             
     e(  4 -  4) =     -7.67898  eV     1   --> A'             
     e(  5 -  5) =     -5.83130  eV     1   --> A''            
     e(  6 -  6) =      1.37793  eV     1   --> A''            
     e(  7 -  7) =      1.89829  eV     1   --> A'             
     e(  8 -  8) =      3.54336  eV     1   -->   ?
     e(  9 -  9) =      3.71513  eV     1   -->   ?

 **************************************************************************

 **************************************************************************

                    xk=(   0.29000,   0.00000,   0.00000  )

     Band symmetry, C_s (m)     point group:

     e(  1 -  1) =    -18.04562  eV     1   --> A'             
     e(  2 -  2) =    -12.15457  eV     1   --> A'             
     e(  3 -  3) =    -10.80950  eV     1   --> A'             
     e(  4 -  4) =     -7.70218  eV     1   --> A'             
     e(  5 -  5) =     -5.77030  eV     1   --> A''            
     e(  6 -  6) =      1.31817  eV     1   --> A''            
     e(  7 -  7) =      1.94923  eV     1   --> A'             
     e(  8 -  8) =      3.60116  eV     1   -->   ?
     e(  9 -  9) =      3.77898  eV     1   --> A'             

 **************************************************************************

 **************************************************************************

                    xk=(   0.29500,   0.00000,   0.00000  )

     Band symmetry, C_s (m)     point group:

     e(  1 -  1) =    -17.99683  eV     1   --> A'             
     e(  2 -  2) =    -12.18003  eV     1   --> A'             
     e(  3 -  3) =    -10.84043  eV     1   --> A'             
     e(  4 -  4) =     -7.72630  eV     1   --> A'             
     e(  5 -  5) =     -5.70832  eV     1   --> A''            
     e(  6 -  6) =      1.25567  eV     1   --> A''            
     e(  7 -  7) =      2.00075  eV     1   --> A'             
     e(  8 -  8) =      3.65916  eV     1   --> A'             
     e(  9 -  9) =      3.84431  eV     1   --> A'             

 **************************************************************************

 **************************************************************************

                    xk=(   0.30000,   0.00000,   0.00000  )

     Band symmetry, C_s (m)     point group:

     e(  1 -  1) =    -17.94724  eV     1   --> A'             
     e(  2 -  2) =    -12.21271  eV     1   --> A'             
     e(  3 -  3) =    -10.86358  eV     1   --> A'             
     e(  4 -  4) =     -7.75131  eV     1   --> A'             
     e(  5 -  5) =     -5.64537  eV     1   --> A''            
     e(  6 -  6) =      1.19051  eV     1   --> A''            
     e(  7 -  7) =      2.05287  eV     1   --> A'             
     e(  8 -  8) =      3.71911  eV     1   -->   ?
     e(  9 -  9) =      3.91070  eV     1   --> A'             

 **************************************************************************

 **************************************************************************

                    xk=(   0.30500,   0.00000,   0.00000  )

     Band symmetry, C_s (m)     point group:

     e(  1 -  1) =    -17.89686  eV     1   --> A'             
     e(  2 -  2) =    -12.25244  eV     1   --> A'             
     e(  3 -  3) =    -10.87900  eV     1   --> A'             
     e(  4 -  4) =     -7.77718  eV     1   --> A'             
     e(  5 -  5) =     -5.58145  eV     1   --> A''            
     e(  6 -  6) =      1.12279  eV     1   --> A''            
     e(  7 -  7) =      2.10551  eV     1   --> A'             
     e(  8 -  8) =      3.77975  eV     1   --> A'             
     e(  9 -  9) =      3.97805  eV     1   -->   ?

 **************************************************************************

 **************************************************************************

                    xk=(   0.31000,   0.00000,   0.00000  )

     Band symmetry, C_s (m)     point group:

     e(  1 -  1) =    -17.84569  eV     1   --> A'             
     e(  2 -  2) =    -12.29889  eV     1   --> A'             
     e(  3 -  3) =    -10.88701  eV     1   --> A'             
     e(  4 -  4) =     -7.80394  eV     1   --> A'             
     e(  5 -  5) =     -5.51657  eV     1   --> A''            
     e(  6 -  6) =      1.05263  eV     1   --> A''            
     e(  7 -  7) =      2.15876  eV     1   --> A'             
     e(  8 -  8) =      3.84180  eV     1   --> A'             
     e(  9 -  9) =      4.04635  eV     1   --> A'             

 **************************************************************************

 **************************************************************************

                    xk=(   0.31500,   0.00000,   0.00000  )

     Band symmetry, C_s (m)     point group:

     e(  1 -  1) =    -17.79372  eV     1   --> A'             
     e(  2 -  2) =    -12.35157  eV     1   --> A'             
     e(  3 -  3) =    -10.88813  eV     1   --> A'             
     e(  4 -  4) =     -7.83164  eV     1   --> A'             
     e(  5 -  5) =     -5.45073  eV     1   --> A''            
     e(  6 -  6) =      0.98015  eV     1   --> A''            
     e(  7 -  7) =      2.21250  eV     1   --> A'             
     e(  8 -  8) =      3.90494  eV     1   -->   ?
     e(  9 -  9) =      4.11577  eV     1   -->   ?

 **************************************************************************

 **************************************************************************

                    xk=(   0.32000,   0.00000,   0.00000  )

     Band symmetry, C_s (m)     point group:

     e(  1 -  1) =    -17.74098  eV     1   --> A'             
     e(  2 -  2) =    -12.40983  eV     1   --> A'             
     e(  3 -  3) =    -10.88297  eV     1   --> A'             
     e(  4 -  4) =     -7.86024  eV     1   --> A'             
     e(  5 -  5) =     -5.38394  eV     1   --> A''            
     e(  6 -  6) =      0.90547  eV     1   --> A''            
     e(  7 -  7) =      2.26687  eV     1   --> A'             
     e(  8 -  8) =      3.96923  eV     1   -->   ?
     e(  9 -  9) =      4.18604  eV     1   --> A'             

 **************************************************************************

 **************************************************************************

                    xk=(   0.32500,   0.00000,   0.00000  )

     Band symmetry, C_s (m)     point group:

     e(  1 -  1) =    -17.68744  eV     1   --> A'             
     e(  2 -  2) =    -12.47299  eV     1   --> A'             
     e(  3 -  3) =    -10.87220  eV     1   --> A'             
     e(  4 -  4) =     -7.88970  eV     1   --> A'             
     e(  5 -  5) =     -5.31621  eV     1   --> A''            
     e(  6 -  6) =      0.82870  eV     1   --> A''            
     e(  7 -  7) =      2.32178  eV     1   --> A'             
     e(  8 -  8) =      4.03484  eV     1   -->   ?
     e(  9 -  9) =      4.25762  eV     1   -->   ?

 **************************************************************************

 **************************************************************************

                    xk=(   0.33000,   0.00000,   0.00000  )

     Band symmetry, C_s (m)     point group:

     e(  1 -  1) =    -17.63314  eV     1   --> A'             
     e(  2 -  2) =    -12.54040  eV     1   --> A'             
     e(  3 -  3) =    -10.85651  eV     1   --> A'             
     e(  4 -  4) =     -7.92017  eV     1   --> A'             
     e(  5 -  5) =     -5.24754  eV     1   --> A''            
     e(  6 -  6) =      0.74994  eV     1   --> A''            
     e(  7 -  7) =      2.37726  eV     1   --> A'             
     e(  8 -  8) =      4.10159  eV     1   -->   ?
     e(  9 -  9) =      4.32980  eV     1   --> A'             

 **************************************************************************

 **************************************************************************

                    xk=(   0.33500,   0.00000,   0.00000  )

     Band symmetry, C_s (m)     point group:

     e(  1 -  1) =    -17.57805  eV     1   --> A'             
     e(  2 -  2) =    -12.61140  eV     1   --> A'             
     e(  3 -  3) =    -10.83648  eV     1   --> A'             
     e(  4 -  4) =     -7.95145  eV     1   --> A'             
     e(  5 -  5) =     -5.17793  eV     1   --> A''            
     e(  6 -  6) =      0.66935  eV     1   --> A''            
     e(  7 -  7) =      2.43338  eV     1   --> A'             
     e(  8 -  8) =      4.16981  eV     1   -->   ?
     e(  9 -  9) =      4.40327  eV     1   -->   ?

 **************************************************************************

 **************************************************************************

                    xk=(   0.34000,   0.00000,   0.00000  )

     Band symmetry, C_s (m)     point group:

     e(  1 -  1) =    -17.52218  eV     1   --> A'             
     e(  2 -  2) =    -12.68540  eV     1   --> A'             
     e(  3 -  3) =    -10.81268  eV     1   --> A'             
     e(  4 -  4) =     -7.98360  eV     1   --> A'             
     e(  5 -  5) =     -5.10740  eV     1   --> A''            
     e(  6 -  6) =      0.58703  eV     1   --> A''            
     e(  7 -  7) =      2.49005  eV     1   --> A'             
     e(  8 -  8) =      4.23894  eV     1   -->   ?
     e(  9 -  9) =      4.47750  eV     1   -->   ?

 **************************************************************************

 **************************************************************************

                    xk=(   0.34500,   0.00000,   0.00000  )

     Band symmetry, C_s (m)     point group:

     e(  1 -  1) =    -17.46556  eV     1   --> A'             
     e(  2 -  2) =    -12.76196  eV     1   --> A'             
     e(  3 -  3) =    -10.78564  eV     1   --> A'             
     e(  4 -  4) =     -8.01674  eV     1   --> A'             
     e(  5 -  5) =     -5.03596  eV     1   --> A''            
     e(  6 -  6) =      0.50309  eV     1   --> A''            
     e(  7 -  7) =      2.54732  eV     1   --> A'             
     e(  8 -  8) =      4.30904  eV     1   --> A'             
     e(  9 -  9) =      4.55290  eV     1   -->   ?

 **************************************************************************

 **************************************************************************

                    xk=(   0.35000,   0.00000,   0.00000  )

     Band symmetry, C_s (m)     point group:

     e(  1 -  1) =    -17.40812  eV     1   --> A'             
     e(  2 -  2) =    -12.84056  eV     1   --> A'             
     e(  3 -  3) =    -10.75573  eV     1   --> A'             
     e(  4 -  4) =     -8.05059  eV     1   --> A'             
     e(  5 -  5) =     -4.96360  eV     1   --> A''            
     e(  6 -  6) =      0.41765  eV     1   --> A''            
     e(  7 -  7) =      2.60526  eV     1   --> A'             
     e(  8 -  8) =      4.38093  eV     1   -->   ?
     e(  9 -  9) =      4.62916  eV     1   -->   ?

 **************************************************************************

 **************************************************************************

                    xk=(   0.35500,   0.00000,   0.00000  )

     Band symmetry, C_s (m)     point group:

     e(  1 -  1) =    -17.34994  eV     1   --> A'             
     e(  2 -  2) =    -12.92088  eV     1   --> A'             
     e(  3 -  3) =    -10.72333  eV     1   --> A'             
     e(  4 -  4) =     -8.08531  eV     1   --> A'             
     e(  5 -  5) =     -4.89033  eV     1   --> A''            
     e(  6 -  6) =      0.33082  eV     1   --> A''            
     e(  7 -  7) =      2.66384  eV     1   --> A'             
     e(  8 -  8) =      4.45386  eV     1   --> A'             
     e(  9 -  9) =      4.70642  eV     1   -->   ?

 **************************************************************************

 **************************************************************************

                    xk=(   0.36000,   0.00000,   0.00000  )

     Band symmetry, C_s (m)     point group:

     e(  1 -  1) =    -17.29099  eV     1   --> A'             
     e(  2 -  2) =    -13.00261  eV     1   --> A'             
     e(  3 -  3) =    -10.68881  eV     1   --> A'             
     e(  4 -  4) =     -8.12088  eV     1   --> A'             
     e(  5 -  5) =     -4.81618  eV     1   --> A''            
     e(  6 -  6) =      0.24270  eV     1   --> A''            
     e(  7 -  7) =      2.72310  eV     1   --> A'             
     e(  8 -  8) =      4.52854  eV     1   -->   ?
     e(  9 -  9) =      4.78447  eV     1   --> A'             

 **************************************************************************

 **************************************************************************

                    xk=(   0.36500,   0.00000,   0.00000  )

     Band symmetry, C_s (m)     point group:

     e(  1 -  1) =    -17.23128  eV     1   --> A'             
     e(  2 -  2) =    -13.08549  eV     1   --> A'             
     e(  3 -  3) =    -10.65239  eV     1   --> A'             
     e(  4 -  4) =     -8.15727  eV     1   --> A'             
     e(  5 -  5) =     -4.74115  eV     1   --> A''            
     e(  6 -  6) =      0.15341  eV     1   --> A''            
     e(  7 -  7) =      2.78306  eV     1   --> A'             
     e(  8 -  8) =      4.60415  eV     1   -->   ?
     e(  9 -  9) =      4.86392  eV     1   -->   ?

 **************************************************************************

 **************************************************************************

                    xk=(   0.37000,   0.00000,   0.00000  )

     Band symmetry, C_s (m)     point group:

     e(  1 -  1) =    -17.17082  eV     1   --> A'             
     e(  2 -  2) =    -13.16927  eV     1   --> A'             
     e(  3 -  3) =    -10.61431  eV     1   --> A'             
     e(  4 -  4) =     -8.19449  eV     1   --> A'             
     e(  5 -  5) =     -4.66523  eV     1   --> A''            
     e(  6 -  6) =      0.06303  eV     1   --> A''            
     e(  7 -  7) =      2.84370  eV     1   --> A'             
     e(  8 -  8) =      4.68127  eV     1   -->   ?
     e(  9 -  9) =      4.94366  eV     1   -->   ?

 **************************************************************************

 **************************************************************************

                    xk=(   0.37500,   0.00000,   0.00000  )

     Band symmetry, C_s (m)     point group:

     e(  1 -  1) =    -17.10960  eV     1   --> A'             
     e(  2 -  2) =    -13.25377  eV     1   --> A'             
     e(  3 -  3) =    -10.57476  eV     1   --> A'             
     e(  4 -  4) =     -8.23257  eV     1   --> A'             
     e(  5 -  5) =     -4.58845  eV     1   --> A''            
     e(  6 -  6) =     -0.02834  eV     1   --> A''            
     e(  7 -  7) =      2.90511  eV     1   --> A'             
     e(  8 -  8) =      4.75970  eV     1   --> A'             
     e(  9 -  9) =      5.02444  eV     1   --> A'             

 **************************************************************************

 **************************************************************************

                    xk=(   0.38000,   0.00000,   0.00000  )

     Band symmetry, C_s (m)     point group:

     e(  1 -  1) =    -17.04763  eV     1   --> A'             
     e(  2 -  2) =    -13.33882  eV     1   --> A'             
     e(  3 -  3) =    -10.53386  eV     1   --> A'             
     e(  4 -  4) =     -8.27135  eV     1   --> A'             
     e(  5 -  5) =     -4.51081  eV     1   --> A''            
     e(  6 -  6) =     -0.12060  eV     1   --> A''            
     e(  7 -  7) =      2.96724  eV     1   --> A'             
     e(  8 -  8) =      4.83965  eV     1   -->   ?
     e(  9 -  9) =      5.10628  eV     1   --> A'             

 **************************************************************************

 **************************************************************************

                    xk=(   0.38500,   0.00000,   0.00000  )

     Band symmetry, C_s (m)     point group:

     e(  1 -  1) =    -16.98491  eV     1   --> A'             
     e(  2 -  2) =    -13.42428  eV     1   --> A'             
     e(  3 -  3) =    -10.49183  eV     1   --> A'             
     e(  4 -  4) =     -8.31090  eV     1   --> A'             
     e(  5 -  5) =     -4.43233  eV     1   --> A''            
     e(  6 -  6) =     -0.21367  eV     1   --> A''            
     e(  7 -  7) =      3.03018  eV     1   --> A'             
     e(  8 -  8) =      4.92074  eV     1   --> A'             
     e(  9 -  9) =      5.18891  eV     1   --> A'             

 **************************************************************************

 **************************************************************************

                    xk=(   0.39000,   0.00000,   0.00000  )

     Band symmetry, C_s (m)     point group:

     e(  1 -  1) =    -16.92145  eV     1   --> A'             
     e(  2 -  2) =    -13.51004  eV     1   --> A'             
     e(  3 -  3) =    -10.44875  eV     1   --> A'             
     e(  4 -  4) =     -8.35120  eV     1   --> A'             
     e(  5 -  5) =     -4.35300  eV     1   --> A''            
     e(  6 -  6) =     -0.30746  eV     1   --> A''            
     e(  7 -  7) =      3.09391  eV     1   --> A'             
     e(  8 -  8) =      5.00348  eV     1   --> A'             
     e(  9 -  9) =      5.27263  eV     1   -->   ?

 **************************************************************************

 **************************************************************************

                    xk=(   0.39500,   0.00000,   0.00000  )

     Band symmetry, C_s (m)     point group:

     e(  1 -  1) =    -16.85726  eV     1   --> A'             
     e(  2 -  2) =    -13.59599  eV     1   --> A'             
     e(  3 -  3) =    -10.40474  eV     1   --> A'             
     e(  4 -  4) =     -8.39221  eV     1   --> A'             
     e(  5 -  5) =     -4.27285  eV     1   --> A''            
     e(  6 -  6) =     -0.40189  eV     1   --> A''            
     e(  7 -  7) =      3.15848  eV     1   --> A'             
     e(  8 -  8) =      5.08756  eV     1   --> A'             
     e(  9 -  9) =      5.35696  eV     1   -->   ?

 **************************************************************************

 **************************************************************************

                    xk=(   0.40000,   0.00000,   0.00000  )

     Band symmetry, C_s (m)     point group:

     e(  1 -  1) =    -16.79232  eV     1   --> A'             
     e(  2 -  2) =    -13.68204  eV     1   --> A'             
     e(  3 -  3) =    -10.35991  eV     1   --> A'             
     e(  4 -  4) =     -8.43394  eV     1   --> A'             
     e(  5 -  5) =     -4.19189  eV     1   --> A''            
     e(  6 -  6) =     -0.49688  eV     1   --> A''            
     e(  7 -  7) =      3.22389  eV     1   --> A'             
     e(  8 -  8) =      5.17290  eV     1   --> A'             
     e(  9 -  9) =      5.44211  eV     1   -->   ?

 **************************************************************************

 **************************************************************************

                    xk=(   0.40500,   0.00000,   0.00000  )

     Band symmetry, C_s (m)     point group:

     e(  1 -  1) =    -16.72666  eV     1   --> A'             
     e(  2 -  2) =    -13.76810  eV     1   --> A'             
     e(  3 -  3) =    -10.31427  eV     1   --> A'             
     e(  4 -  4) =     -8.47635  eV     1   --> A'             
     e(  5 -  5) =     -4.11011  eV     1   --> A''            
     e(  6 -  6) =     -0.59236  eV     1   --> A''            
     e(  7 -  7) =      3.29021  eV     1   --> A'             
     e(  8 -  8) =      5.25992  eV     1   --> A'             
     e(  9 -  9) =      5.52781  eV     1   --> A'             

 **************************************************************************

 **************************************************************************

                    xk=(   0.41000,   0.00000,   0.00000  )

     Band symmetry, C_s (m)     point group:

     e(  1 -  1) =    -16.66027  eV     1   --> A'             
     e(  2 -  2) =    -13.85412  eV     1   --> A'             
     e(  3 -  3) =    -10.26794  eV     1   --> A'             
     e(  4 -  4) =     -8.51937  eV     1   --> A'             
     e(  5 -  5) =     -4.02754  eV     1   --> A''            
     e(  6 -  6) =     -0.68827  eV     1   --> A''            
     e(  7 -  7) =      3.35743  eV     1   --> A'             
     e(  8 -  8) =      5.34808  eV     1   --> A'             
     e(  9 -  9) =      5.61431  eV     1   --> A'             

 **************************************************************************

 **************************************************************************

                    xk=(   0.41500,   0.00000,   0.00000  )

     Band symmetry, C_s (m)     point group:

     e(  1 -  1) =    -16.59315  eV     1   --> A'             
     e(  2 -  2) =    -13.94002  eV     1   --> A'             
     e(  3 -  3) =    -10.22097  eV     1   --> A'             
     e(  4 -  4) =     -8.56302  eV     1   --> A'             
     e(  5 -  5) =     -3.94418  eV     1   --> A''            
     e(  6 -  6) =     -0.78452  eV     1   --> A''            
     e(  7 -  7) =      3.42558  eV     1   --> A'             
     e(  8 -  8) =      5.43765  eV     1   --> A'             
     e(  9 -  9) =      5.70132  eV     1   --> A'             

 **************************************************************************

 **************************************************************************

                    xk=(   0.42000,   0.00000,   0.00000  )

     Band symmetry, C_s (m)     point group:

     e(  1 -  1) =    -16.52532  eV     1   --> A'             
     e(  2 -  2) =    -14.02580  eV     1   --> A'             
     e(  3 -  3) =    -10.17351  eV     1   --> A'             
     e(  4 -  4) =     -8.60733  eV     1   --> A'             
     e(  5 -  5) =     -3.86007  eV     1   --> A''            
     e(  6 -  6) =     -0.88108  eV     1   --> A''            
     e(  7 -  7) =      3.49468  eV     1   --> A'             
     e(  8 -  8) =      5.52868  eV     1   --> A'             
     e(  9 -  9) =      5.78849  eV     1   --> A'             

 **************************************************************************

 **************************************************************************

                    xk=(   0.42500,   0.00000,   0.00000  )

     Band symmetry, C_s (m)     point group:

     e(  1 -  1) =    -16.45680  eV     1   --> A'             
     e(  2 -  2) =    -14.11136  eV     1   --> A'             
     e(  3 -  3) =    -10.12557  eV     1   --> A'             
     e(  4 -  4) =     -8.65224  eV     1   --> A'             
     e(  5 -  5) =     -3.77520  eV     1   --> A''            
     e(  6 -  6) =     -0.97785  eV     1   --> A''            
     e(  7 -  7) =      3.56473  eV     1   --> A'             
     e(  8 -  8) =      5.62125  eV     1   --> A'             
     e(  9 -  9) =      5.87437  eV     1   --> A'             

 **************************************************************************

 **************************************************************************

                    xk=(   0.43000,   0.00000,   0.00000  )

     Band symmetry, C_s (m)     point group:

     e(  1 -  1) =    -16.38756  eV     1   --> A'             
     e(  2 -  2) =    -14.19665  eV     1   --> A'             
     e(  3 -  3) =    -10.07717  eV     1   --> A'             
     e(  4 -  4) =     -8.69767  eV     1   --> A'             
     e(  5 -  5) =     -3.68959  eV     1   --> A''            
     e(  6 -  6) =     -1.07479  eV     1   --> A''            
     e(  7 -  7) =      3.63581  eV     1   --> A'             
     e(  8 -  8) =      5.94614  eV     1   --> A'             
     e(  9 -  9) =      6.05807  eV     1   --> A'             

 **************************************************************************

 **************************************************************************

                    xk=(   0.43500,   0.00000,   0.00000  )

     Band symmetry, C_s (m)     point group:

     e(  1 -  1) =    -16.31762  eV     1   --> A'             
     e(  2 -  2) =    -14.28165  eV     1   --> A'             
     e(  3 -  3) =    -10.02837  eV     1   --> A'             
     e(  4 -  4) =     -8.74362  eV     1   --> A'             
     e(  5 -  5) =     -3.60325  eV     1   --> A''            
     e(  6 -  6) =     -1.17184  eV     1   --> A''            
     e(  7 -  7) =      3.70804  eV     1   --> A'             
     e(  8 -  8) =      5.92614  eV     1   --> A'             
     e(  9 -  9) =      6.07710  eV     1   --> A'             

 **************************************************************************

 **************************************************************************

                    xk=(   0.44000,   0.00000,   0.00000  )

     Band symmetry, C_s (m)     point group:

     e(  1 -  1) =    -16.24699  eV     1   --> A'             
     e(  2 -  2) =    -14.36633  eV     1   --> A'             
     e(  3 -  3) =     -9.97924  eV     1   --> A'             
     e(  4 -  4) =     -8.79008  eV     1   --> A'             
     e(  5 -  5) =     -3.51621  eV     1   --> A''            
     e(  6 -  6) =     -1.26895  eV     1   --> A''            
     e(  7 -  7) =      3.78093  eV     1   --> A'             
     e(  8 -  8) =      5.83909  eV     1   --> A'             
     e(  9 -  9) =      6.15677  eV     1   --> A'             

 **************************************************************************

 **************************************************************************

                    xk=(   0.44500,   0.00000,   0.00000  )

     Band symmetry, C_s (m)     point group:

     e(  1 -  1) =    -16.17567  eV     1   --> A'             
     e(  2 -  2) =    -14.45065  eV     1   --> A'             
     e(  3 -  3) =     -9.92979  eV     1   --> A'             
     e(  4 -  4) =     -8.83702  eV     1   --> A'             
     e(  5 -  5) =     -3.42848  eV     1   --> A''            
     e(  6 -  6) =     -1.36608  eV     1   --> A''            
     e(  7 -  7) =      3.85511  eV     1   --> A'             
     e(  8 -  8) =      5.74704  eV     1   --> A'             
     e(  9 -  9) =      6.24863  eV     1   --> A'             

 **************************************************************************

 **************************************************************************

                    xk=(   0.45000,   0.00000,   0.00000  )

     Band symmetry, C_s (m)     point group:

     e(  1 -  1) =    -16.10367  eV     1   --> A'             
     e(  2 -  2) =    -14.53458  eV     1   --> A'             
     e(  3 -  3) =     -9.88006  eV     1   --> A'             
     e(  4 -  4) =     -8.88439  eV     1   --> A'             
     e(  5 -  5) =     -3.34006  eV     1   --> A''            
     e(  6 -  6) =     -1.46318  eV     1   --> A''            
     e(  7 -  7) =      3.93023  eV     1   --> A'             
     e(  8 -  8) =      5.65132  eV     1   --> A'             
     e(  9 -  9) =      6.33990  eV     1   --> A'             

 **************************************************************************

 **************************************************************************

                    xk=(   0.45500,   0.00000,   0.00000  )

     Band symmetry, C_s (m)     point group:

     e(  1 -  1) =    -16.03101  eV     1   --> A'             
     e(  2 -  2) =    -14.61811  eV     1   --> A'             
     e(  3 -  3) =     -9.83013  eV     1   --> A'             
     e(  4 -  4) =     -8.93223  eV     1   --> A'             
     e(  5 -  5) =     -3.25099  eV     1   --> A''            
     e(  6 -  6) =     -1.56018  eV     1   --> A''            
     e(  7 -  7) =      4.00649  eV     1   --> A'             
     e(  8 -  8) =      5.55693  eV     1   --> A'             
     e(  9 -  9) =      6.43161  eV     1   --> A'             

 **************************************************************************

 **************************************************************************

                    xk=(   0.46000,   0.00000,   0.00000  )

     Band symmetry, C_s (m)     point group:

     e(  1 -  1) =    -15.95767  eV     1   --> A'             
     e(  2 -  2) =    -14.70120  eV     1   --> A'             
     e(  3 -  3) =     -9.78001  eV     1   --> A'             
     e(  4 -  4) =     -8.98042  eV     1   --> A'             
     e(  5 -  5) =     -3.16128  eV     1   --> A''            
     e(  6 -  6) =     -1.65705  eV     1   --> A''            
     e(  7 -  7) =      4.08394  eV     1   --> A'             
     e(  8 -  8) =      5.46326  eV     1   --> A'             
     e(  9 -  9) =      6.52217  eV     1   --> A'             

 **************************************************************************

 **************************************************************************

                    xk=(   0.46500,   0.00000,   0.00000  )

     Band symmetry, C_s (m)     point group:

     e(  1 -  1) =    -15.88368  eV     1   --> A'             
     e(  2 -  2) =    -14.78383  eV     1   --> A'             
     e(  3 -  3) =     -9.72974  eV     1   --> A'             
     e(  4 -  4) =     -9.02898  eV     1   --> A'             
     e(  5 -  5) =     -3.07094  eV     1   --> A''            
     e(  6 -  6) =     -1.75376  eV     1   --> A''            
     e(  7 -  7) =      4.16221  eV     1   --> A'             
     e(  8 -  8) =      5.36994  eV     1   --> A'             
     e(  9 -  9) =      6.61498  eV     1   --> A'             

 **************************************************************************

 **************************************************************************

                    xk=(   0.47000,   0.00000,   0.00000  )

     Band symmetry, C_s (m)     point group:

     e(  1 -  1) =    -15.80903  eV     1   --> A'             
     e(  2 -  2) =    -14.86598  eV     1   --> A'             
     e(  3 -  3) =     -9.67935  eV     1   --> A'             
     e(  4 -  4) =     -9.07786  eV     1   --> A'             
     e(  5 -  5) =     -2.98001  eV     1   --> A''            
     e(  6 -  6) =     -1.85026  eV     1   --> A''            
     e(  7 -  7) =      4.24163  eV     1   --> A'             
     e(  8 -  8) =      5.27746  eV     1   --> A'             
     e(  9 -  9) =      6.70710  eV     1   --> A'             

 **************************************************************************

 **************************************************************************

                    xk=(   0.47500,   0.00000,   0.00000  )

     Band symmetry, C_s (m)     point group:

     e(  1 -  1) =    -15.73375  eV     1   --> A'             
     e(  2 -  2) =    -14.94765  eV     1   --> A'             
     e(  3 -  3) =     -9.62887  eV     1   --> A'             
     e(  4 -  4) =     -9.12712  eV     1   --> A'             
     e(  5 -  5) =     -2.88848  eV     1   --> A''            
     e(  6 -  6) =     -1.94653  eV     1   --> A''            
     e(  7 -  7) =      4.32227  eV     1   --> A'             
     e(  8 -  8) =      5.18578  eV     1   --> A'             
     e(  9 -  9) =      6.79868  eV     1   --> A'             

 **************************************************************************

 **************************************************************************

                    xk=(   0.48000,   0.00000,   0.00000  )

     Band symmetry, C_s (m)     point group:

     e(  1 -  1) =    -15.65783  eV     1   --> A'             
     e(  2 -  2) =    -15.02880  eV     1   --> A'             
     e(  3 -  3) =     -9.57836  eV     1   --> A'             
     e(  4 -  4) =     -9.17658  eV     1   --> A'             
     e(  5 -  5) =     -2.79640  eV     1   --> A''            
     e(  6 -  6) =     -2.04250  eV     1   --> A''            
     e(  7 -  7) =      4.40385  eV     1   --> A'             
     e(  8 -  8) =      5.09493  eV     1   --> A'             
     e(  9 -  9) =      6.72656  eV     1   --> A'             

 **************************************************************************

 **************************************************************************

                    xk=(   0.48500,   0.00000,   0.00000  )

     Band symmetry, C_s (m)     point group:

     e(  1 -  1) =    -15.58128  eV     1   --> A'             
     e(  2 -  2) =    -15.10942  eV     1   --> A'             
     e(  3 -  3) =     -9.52784  eV     1   --> A'             
     e(  4 -  4) =     -9.22628  eV     1   --> A'             
     e(  5 -  5) =     -2.70378  eV     1   --> A''            
     e(  6 -  6) =     -2.13816  eV     1   --> A''            
     e(  7 -  7) =      4.48657  eV     1   --> A'             
     e(  8 -  8) =      5.00504  eV     1   --> A'             
     e(  9 -  9) =      6.97651  eV     1   --> A'             

 **************************************************************************

 **************************************************************************

                    xk=(   0.49000,   0.00000,   0.00000  )

     Band symmetry, C_s (m)     point group:

     e(  1 -  1) =    -15.50413  eV     1   --> A'             
     e(  2 -  2) =    -15.18951  eV     1   --> A'             
     e(  3 -  3) =     -9.47740  eV     1   --> A'             
     e(  4 -  4) =     -9.27622  eV     1   --> A'             
     e(  5 -  5) =     -2.61065  eV     1   --> A''            
     e(  6 -  6) =     -2.23347  eV     1   --> A''            
     e(  7 -  7) =      4.57037  eV     1   --> A'             
     e(  8 -  8) =      4.91604  eV     1   --> A'             
     e(  9 -  9) =      7.05806  eV     1   --> A'             

 **************************************************************************

 **************************************************************************

                    xk=(   0.49500,   0.00000,   0.00000  )

     Band symmetry, C_s (m)     point group:

     e(  1 -  1) =    -15.42632  eV     1   --> A'             
     e(  2 -  2) =    -15.26901  eV     1   --> A'             
     e(  3 -  3) =     -9.42689  eV     1   --> A'             
     e(  4 -  4) =     -9.32627  eV     1   --> A'             
     e(  5 -  5) =     -2.51701  eV     1   --> A''            
     e(  6 -  6) =     -2.32840  eV     1   --> A''            
     e(  7 -  7) =      4.65527  eV     1   --> A'             
     e(  8 -  8) =      4.82808  eV     1   --> A'             
     e(  9 -  9) =      7.12702  eV     1   --> A'             

 **************************************************************************

 **************************************************************************

                    xk=(   0.50000,   0.00000,   0.00000  )

     point group C_2v (mm2) 
     there are  4 classes
     the character table:

       E     C2    s_v   s_v' 
A_1    1.00  1.00  1.00  1.00
A_2    1.00  1.00 -1.00 -1.00
B_1    1.00 -1.00  1.00 -1.00
B_2    1.00 -1.00 -1.00  1.00

     the symmetry operations in each class and the name of the first element:

     E        1
                                                                 
     C2       2
                                                                 
     s_v      3
                                                                 
     s_v'     4
                                                                 

     Band symmetry, C_2v (mm2)  point group:

     e(  1 -  2) =    -15.34800  eV     2   --> A_1  D_1  S_1  
     e(  1 -  2) =    -15.34800  eV     2   --> B_1  D_3  S_3  
     e(  3 -  4) =     -9.37658  eV     2   --> A_1  D_1  S_1  
     e(  3 -  4) =     -9.37658  eV     2   --> B_1  D_3  S_3  
     e(  5 -  5) =     -2.42307  eV     1   --> B_2  D_4  S_4  
     e(  6 -  6) =     -2.42278  eV     1   --> A_2  D_2  S_2  
     e(  7 -  7) =      4.74098  eV     1   -->   ?
     e(  8 -  8) =      4.74131  eV     1   -->   ?
     e(  9 -  9) =      7.12082  eV     1   -->   ?

 **************************************************************************

     BANDS        :      8.42s CPU     10.10s WALL


   This run was terminated on:  15:22:14   5Dec2025            

=------------------------------------------------------------------------------=
   JOB DONE.
=------------------------------------------------------------------------------=
