
     Program BANDS v.6.7MaX starts on  5Dec2025 at 14:57:28 

     This program is part of the open-source Quantum ESPRESSO suite
     for quantum simulation of materials; please cite
         "P. Giannozzi et al., J. Phys.:Condens. Matter 21 395502 (2009);
         "P. Giannozzi et al., J. Phys.:Condens. Matter 29 465901 (2017);
          URL http://www.quantum-espresso.org", 
     in publications or presentations arising from this work. More details at
     http://www.quantum-espresso.org/quote

     Parallel version (MPI), running on     1 processors

     MPI processes distributed on     1 nodes

     Reading xml data from directory:

     ./polyene.save/
     file C.pbe-n-kjpaw_psl.0.1.UPF: wavefunction(s)  2P renormalized

     IMPORTANT: XC functional enforced from input :
     Exchange-correlation= PBE
                           (   1   4   3   4   0   0   0)
     Any further DFT definition will be discarded
     Please, verify this is what you really want


     G-vector sticks info
     --------------------
     sticks:   dense  smooth     PW     G-vecs:    dense   smooth      PW
     Sum         899     899    275                36359    36359    6143


     Check: negative core charge=   -0.000012

     negative rho (up, down):  1.682E-04 0.000E+00
     Reading collected, re-writing distributed wavefunctions
     high-symmetry point:  0.0000 0.0000 0.0000   x coordinate   0.0000
     high-symmetry point:  0.5000 0.0000 0.0000   x coordinate   0.5000

     Plottable bands (eV) written to file polyene.bands.dat.gnu
     Bands written to file polyene.bands.dat

 **************************************************************************

                    xk=(   0.00000,   0.00000,   0.00000  )

     point group C_s (m)    
     there are  2 classes
     the character table:

       E     s    
A'     1.00  1.00
A''    1.00 -1.00

     the symmetry operations in each class and the name of the first element:

     E        1
                                                                 
     s        2
                                                                 

     Band symmetry, C_s (m)     point group:

     e(  1 -  1) =    -19.46227  eV     1   --> A'             
     e(  2 -  2) =    -12.70338  eV     1   --> A'             
     e(  3 -  3) =     -7.63246  eV     1   --> A''            
     e(  4 -  4) =     -7.45072  eV     1   --> A'             
     e(  5 -  5) =     -7.10999  eV     1   --> A'             
     e(  6 -  6) =      0.32768  eV     1   --> A'             
     e(  7 -  7) =      1.69274  eV     1   --> A'             
     e(  8 -  8) =      1.80291  eV     1   --> A''            
     e(  9 -  9) =      1.85990  eV     1   -->   ?

 **************************************************************************

 **************************************************************************

                    xk=(   0.00500,   0.00000,   0.00000  )

     Band symmetry, C_s (m)     point group:

     e(  1 -  1) =    -19.46185  eV     1   --> A'             
     e(  2 -  2) =    -12.70304  eV     1   --> A'             
     e(  3 -  3) =     -7.63191  eV     1   --> A''            
     e(  4 -  4) =     -7.45214  eV     1   --> A'             
     e(  5 -  5) =     -7.11047  eV     1   --> A'             
     e(  6 -  6) =      0.32824  eV     1   --> A'             
     e(  7 -  7) =      1.69345  eV     1   -->   ?
     e(  8 -  8) =      1.80332  eV     1   --> A''            
     e(  9 -  9) =      1.86031  eV     1   -->   ?

 **************************************************************************

 **************************************************************************

                    xk=(   0.01000,   0.00000,   0.00000  )

     Band symmetry, C_s (m)     point group:

     e(  1 -  1) =    -19.46058  eV     1   --> A'             
     e(  2 -  2) =    -12.70189  eV     1   --> A'             
     e(  3 -  3) =     -7.63027  eV     1   --> A''            
     e(  4 -  4) =     -7.45636  eV     1   --> A'             
     e(  5 -  5) =     -7.11167  eV     1   --> A'             
     e(  6 -  6) =      0.32978  eV     1   --> A'             
     e(  7 -  7) =      1.69516  eV     1   --> A'             
     e(  8 -  8) =      1.80406  eV     1   --> A''            
     e(  9 -  9) =      1.86158  eV     1   --> A'             

 **************************************************************************

 **************************************************************************

                    xk=(   0.01500,   0.00000,   0.00000  )

     Band symmetry, C_s (m)     point group:

     e(  1 -  1) =    -19.45846  eV     1   --> A'             
     e(  2 -  2) =    -12.69998  eV     1   --> A'             
     e(  3 -  3) =     -7.62753  eV     1   --> A''            
     e(  4 -  4) =     -7.46346  eV     1   --> A'             
     e(  5 -  5) =     -7.11363  eV     1   --> A'             
     e(  6 -  6) =      0.33239  eV     1   --> A'             
     e(  7 -  7) =      1.69837  eV     1   --> A'             
     e(  8 -  8) =      1.80551  eV     1   --> A''            
     e(  9 -  9) =      1.86496  eV     1   -->   ?

 **************************************************************************

 **************************************************************************

                    xk=(   0.02000,   0.00000,   0.00000  )

     Band symmetry, C_s (m)     point group:

     e(  1 -  1) =    -19.45551  eV     1   --> A'             
     e(  2 -  2) =    -12.69730  eV     1   --> A'             
     e(  3 -  3) =     -7.62369  eV     1   --> A''            
     e(  4 -  4) =     -7.47350  eV     1   --> A'             
     e(  5 -  5) =     -7.11625  eV     1   --> A'             
     e(  6 -  6) =      0.33606  eV     1   --> A'             
     e(  7 -  7) =      1.70298  eV     1   -->   ?
     e(  8 -  8) =      1.80756  eV     1   --> A''            
     e(  9 -  9) =      1.86821  eV     1   -->   ?

 **************************************************************************

 **************************************************************************

                    xk=(   0.02500,   0.00000,   0.00000  )

     Band symmetry, C_s (m)     point group:

     e(  1 -  1) =    -19.45170  eV     1   --> A'             
     e(  2 -  2) =    -12.69387  eV     1   --> A'             
     e(  3 -  3) =     -7.61876  eV     1   --> A''            
     e(  4 -  4) =     -7.48657  eV     1   --> A'             
     e(  5 -  5) =     -7.11939  eV     1   --> A'             
     e(  6 -  6) =      0.34077  eV     1   --> A'             
     e(  7 -  7) =      1.70872  eV     1   -->   ?
     e(  8 -  8) =      1.81020  eV     1   --> A''            
     e(  9 -  9) =      1.87297  eV     1   -->   ?

 **************************************************************************

 **************************************************************************

                    xk=(   0.03000,   0.00000,   0.00000  )

     Band symmetry, C_s (m)     point group:

     e(  1 -  1) =    -19.44705  eV     1   --> A'             
     e(  2 -  2) =    -12.68967  eV     1   --> A'             
     e(  3 -  3) =     -7.61274  eV     1   --> A''            
     e(  4 -  4) =     -7.50278  eV     1   --> A'             
     e(  5 -  5) =     -7.12293  eV     1   --> A'             
     e(  6 -  6) =      0.34653  eV     1   --> A'             
     e(  7 -  7) =      1.71541  eV     1   --> A'             
     e(  8 -  8) =      1.81331  eV     1   --> A''            
     e(  9 -  9) =      1.87839  eV     1   -->   ?

 **************************************************************************

 **************************************************************************

                    xk=(   0.03500,   0.00000,   0.00000  )

     Band symmetry, C_s (m)     point group:

     e(  1 -  1) =    -19.44157  eV     1   --> A'             
     e(  2 -  2) =    -12.68479  eV     1   --> A'             
     e(  3 -  3) =     -7.60561  eV     1   --> A''            
     e(  4 -  4) =     -7.52225  eV     1   --> A'             
     e(  5 -  5) =     -7.12678  eV     1   --> A'             
     e(  6 -  6) =      0.35334  eV     1   --> A'             
     e(  7 -  7) =      1.72368  eV     1   -->   ?
     e(  8 -  8) =      1.81708  eV     1   --> A''            
     e(  9 -  9) =      1.88739  eV     1   -->   ?

 **************************************************************************

 **************************************************************************

                    xk=(   0.04000,   0.00000,   0.00000  )

     Band symmetry, C_s (m)     point group:

     e(  1 -  1) =    -19.43523  eV     1   --> A'             
     e(  2 -  2) =    -12.67908  eV     1   --> A'             
     e(  3 -  3) =     -7.59740  eV     1   --> A''            
     e(  4 -  4) =     -7.54499  eV     1   --> A'             
     e(  5 -  5) =     -7.13072  eV     1   --> A'             
     e(  6 -  6) =      0.36129  eV     1   --> A'             
     e(  7 -  7) =      1.73311  eV     1   --> A'             
     e(  8 -  8) =      1.82126  eV     1   --> A''            
     e(  9 -  9) =      1.89342  eV     1   -->   ?

 **************************************************************************

 **************************************************************************

                    xk=(   0.04500,   0.00000,   0.00000  )

     Band symmetry, C_s (m)     point group:

     e(  1 -  1) =    -19.42804  eV     1   --> A'             
     e(  2 -  2) =    -12.67261  eV     1   --> A'             
     e(  3 -  3) =     -7.58808  eV     1   --> A''            
     e(  4 -  4) =     -7.57109  eV     1   --> A'             
     e(  5 -  5) =     -7.13468  eV     1   --> A'             
     e(  6 -  6) =      0.37008  eV     1   --> A'             
     e(  7 -  7) =      1.74373  eV     1   --> A'             
     e(  8 -  8) =      1.82603  eV     1   --> A''            
     e(  9 -  9) =      1.90233  eV     1   -->   ?

 **************************************************************************

 **************************************************************************

                    xk=(   0.05000,   0.00000,   0.00000  )

     Band symmetry, C_s (m)     point group:

     e(  1 -  1) =    -19.42001  eV     1   --> A'             
     e(  2 -  2) =    -12.66540  eV     1   --> A'             
     e(  3 -  3) =     -7.60057  eV     1   --> A'             
     e(  4 -  4) =     -7.57768  eV     1   --> A''            
     e(  5 -  5) =     -7.13858  eV     1   --> A'             
     e(  6 -  6) =      0.38000  eV     1   --> A'             
     e(  7 -  7) =      1.75560  eV     1   --> A'             
     e(  8 -  8) =      1.83128  eV     1   --> A''            
     e(  9 -  9) =      1.91185  eV     1   --> A'             

 **************************************************************************

 **************************************************************************

                    xk=(   0.05500,   0.00000,   0.00000  )

     Band symmetry, C_s (m)     point group:

     e(  1 -  1) =    -19.41114  eV     1   --> A'             
     e(  2 -  2) =    -12.65741  eV     1   --> A'             
     e(  3 -  3) =     -7.63343  eV     1   --> A'             
     e(  4 -  4) =     -7.56618  eV     1   --> A''            
     e(  5 -  5) =     -7.14235  eV     1   --> A'             
     e(  6 -  6) =      0.39096  eV     1   --> A'             
     e(  7 -  7) =      1.76890  eV     1   -->   ?
     e(  8 -  8) =      1.83704  eV     1   --> A''            
     e(  9 -  9) =      1.92385  eV     1   -->   ?

 **************************************************************************

 **************************************************************************

                    xk=(   0.06000,   0.00000,   0.00000  )

     Band symmetry, C_s (m)     point group:

     e(  1 -  1) =    -19.40142  eV     1   --> A'             
     e(  2 -  2) =    -12.64870  eV     1   --> A'             
     e(  3 -  3) =     -7.66963  eV     1   --> A'             
     e(  4 -  4) =     -7.55358  eV     1   --> A''            
     e(  5 -  5) =     -7.14597  eV     1   --> A'             
     e(  6 -  6) =      0.40295  eV     1   --> A'             
     e(  7 -  7) =      1.78304  eV     1   --> A'             
     e(  8 -  8) =      1.84316  eV     1   --> A''            
     e(  9 -  9) =      1.93622  eV     1   -->   ?

 **************************************************************************

 **************************************************************************

                    xk=(   0.06500,   0.00000,   0.00000  )

     Band symmetry, C_s (m)     point group:

     e(  1 -  1) =    -19.39086  eV     1   --> A'             
     e(  2 -  2) =    -12.63925  eV     1   --> A'             
     e(  3 -  3) =     -7.70912  eV     1   --> A'             
     e(  4 -  4) =     -7.53990  eV     1   --> A''            
     e(  5 -  5) =     -7.14941  eV     1   --> A'             
     e(  6 -  6) =      0.41599  eV     1   --> A'             
     e(  7 -  7) =      1.79854  eV     1   --> A'             
     e(  8 -  8) =      1.85003  eV     1   --> A''            
     e(  9 -  9) =      1.94883  eV     1   -->   ?

 **************************************************************************

 **************************************************************************

                    xk=(   0.07000,   0.00000,   0.00000  )

     Band symmetry, C_s (m)     point group:

     e(  1 -  1) =    -19.37946  eV     1   --> A'             
     e(  2 -  2) =    -12.62909  eV     1   --> A'             
     e(  3 -  3) =     -7.75184  eV     1   --> A'             
     e(  4 -  4) =     -7.52512  eV     1   --> A''            
     e(  5 -  5) =     -7.15270  eV     1   --> A'             
     e(  6 -  6) =      0.43002  eV     1   --> A'             
     e(  7 -  7) =      1.81528  eV     1   --> A'             
     e(  8 -  8) =      1.85677  eV     1   --> A''            
     e(  9 -  9) =      1.96268  eV     1   -->   ?

 **************************************************************************

 **************************************************************************

                    xk=(   0.07500,   0.00000,   0.00000  )

     Band symmetry, C_s (m)     point group:

     e(  1 -  1) =    -19.36721  eV     1   --> A'             
     e(  2 -  2) =    -12.61817  eV     1   --> A'             
     e(  3 -  3) =     -7.79766  eV     1   --> A'             
     e(  4 -  4) =     -7.50926  eV     1   --> A''            
     e(  5 -  5) =     -7.15580  eV     1   --> A'             
     e(  6 -  6) =      0.44507  eV     1   --> A'             
     e(  7 -  7) =      1.83308  eV     1   --> A'             
     e(  8 -  8) =      1.86416  eV     1   --> A''            
     e(  9 -  9) =      1.97707  eV     1   --> A'             

 **************************************************************************

 **************************************************************************

                    xk=(   0.08000,   0.00000,   0.00000  )

     Band symmetry, C_s (m)     point group:

     e(  1 -  1) =    -19.35412  eV     1   --> A'             
     e(  2 -  2) =    -12.60652  eV     1   --> A'             
     e(  3 -  3) =     -7.84650  eV     1   --> A'             
     e(  4 -  4) =     -7.49230  eV     1   --> A''            
     e(  5 -  5) =     -7.15874  eV     1   --> A'             
     e(  6 -  6) =      0.46116  eV     1   --> A'             
     e(  7 -  7) =      1.85216  eV     1   --> A'             
     e(  8 -  8) =      1.87184  eV     1   --> A''            
     e(  9 -  9) =      1.99455  eV     1   -->   ?

 **************************************************************************

 **************************************************************************

                    xk=(   0.08500,   0.00000,   0.00000  )

     Band symmetry, C_s (m)     point group:

     e(  1 -  1) =    -19.34019  eV     1   --> A'             
     e(  2 -  2) =    -12.59416  eV     1   --> A'             
     e(  3 -  3) =     -7.89823  eV     1   --> A'             
     e(  4 -  4) =     -7.47425  eV     1   --> A''            
     e(  5 -  5) =     -7.16156  eV     1   --> A'             
     e(  6 -  6) =      0.47822  eV     1   --> A'             
     e(  7 -  7) =      1.87232  eV     1   --> A'             
     e(  8 -  8) =      1.87971  eV     1   --> A''            
     e(  9 -  9) =      2.01080  eV     1   -->   ?

 **************************************************************************

 **************************************************************************

                    xk=(   0.09000,   0.00000,   0.00000  )

     Band symmetry, C_s (m)     point group:

     e(  1 -  1) =    -19.32541  eV     1   --> A'             
     e(  2 -  2) =    -12.58107  eV     1   --> A'             
     e(  3 -  3) =     -7.95276  eV     1   --> A'             
     e(  4 -  4) =     -7.45512  eV     1   --> A''            
     e(  5 -  5) =     -7.16429  eV     1   --> A'             
     e(  6 -  6) =      0.49631  eV     1   --> A'             
     e(  7 -  7) =      1.88794  eV     1   --> A''            
     e(  8 -  8) =      1.89371  eV     1   --> A'             
     e(  9 -  9) =      2.02865  eV     1   -->   ?

 **************************************************************************

 **************************************************************************

                    xk=(   0.09500,   0.00000,   0.00000  )

     Band symmetry, C_s (m)     point group:

     e(  1 -  1) =    -19.30980  eV     1   --> A'             
     e(  2 -  2) =    -12.56731  eV     1   --> A'             
     e(  3 -  3) =     -8.00996  eV     1   --> A'             
     e(  4 -  4) =     -7.43489  eV     1   --> A''            
     e(  5 -  5) =     -7.16699  eV     1   --> A'             
     e(  6 -  6) =      0.51541  eV     1   --> A'             
     e(  7 -  7) =      1.89634  eV     1   --> A''            
     e(  8 -  8) =      1.91627  eV     1   -->   ?
     e(  9 -  9) =      2.04942  eV     1   -->   ?

 **************************************************************************

 **************************************************************************

                    xk=(   0.10000,   0.00000,   0.00000  )

     Band symmetry, C_s (m)     point group:

     e(  1 -  1) =    -19.29332  eV     1   --> A'             
     e(  2 -  2) =    -12.55273  eV     1   --> A'             
     e(  3 -  3) =     -8.06967  eV     1   --> A'             
     e(  4 -  4) =     -7.41358  eV     1   --> A''            
     e(  5 -  5) =     -7.16952  eV     1   --> A'             
     e(  6 -  6) =      0.53548  eV     1   --> A'             
     e(  7 -  7) =      1.90477  eV     1   --> A''            
     e(  8 -  8) =      1.93990  eV     1   -->   ?
     e(  9 -  9) =      2.06921  eV     1   -->   ?

 **************************************************************************

 **************************************************************************

                    xk=(   0.10500,   0.00000,   0.00000  )

     Band symmetry, C_s (m)     point group:

     e(  1 -  1) =    -19.27602  eV     1   --> A'             
     e(  2 -  2) =    -12.53754  eV     1   --> A'             
     e(  3 -  3) =     -8.13182  eV     1   --> A'             
     e(  4 -  4) =     -7.39119  eV     1   --> A''            
     e(  5 -  5) =     -7.17216  eV     1   --> A'             
     e(  6 -  6) =      0.55653  eV     1   --> A'             
     e(  7 -  7) =      1.91341  eV     1   --> A''            
     e(  8 -  8) =      1.96455  eV     1   --> A'             
     e(  9 -  9) =      2.09095  eV     1   -->   ?

 **************************************************************************

 **************************************************************************

                    xk=(   0.11000,   0.00000,   0.00000  )

     Band symmetry, C_s (m)     point group:

     e(  1 -  1) =    -19.25789  eV     1   --> A'             
     e(  2 -  2) =    -12.52163  eV     1   --> A'             
     e(  3 -  3) =     -8.19627  eV     1   --> A'             
     e(  4 -  4) =     -7.36771  eV     1   --> A''            
     e(  5 -  5) =     -7.17483  eV     1   --> A'             
     e(  6 -  6) =      0.57859  eV     1   --> A'             
     e(  7 -  7) =      1.92194  eV     1   --> A''            
     e(  8 -  8) =      1.99040  eV     1   --> A'             
     e(  9 -  9) =      2.11142  eV     1   --> A'             

 **************************************************************************

 **************************************************************************

                    xk=(   0.11500,   0.00000,   0.00000  )

     Band symmetry, C_s (m)     point group:

     e(  1 -  1) =    -19.23891  eV     1   --> A'             
     e(  2 -  2) =    -12.50509  eV     1   --> A'             
     e(  3 -  3) =     -8.26290  eV     1   --> A'             
     e(  4 -  4) =     -7.34314  eV     1   --> A''            
     e(  5 -  5) =     -7.17757  eV     1   --> A'             
     e(  6 -  6) =      0.60166  eV     1   --> A'             
     e(  7 -  7) =      1.93051  eV     1   --> A''            
     e(  8 -  8) =      2.01755  eV     1   -->   ?
     e(  9 -  9) =      2.13504  eV     1   -->   ?

 **************************************************************************

 **************************************************************************

                    xk=(   0.12000,   0.00000,   0.00000  )

     Band symmetry, C_s (m)     point group:

     e(  1 -  1) =    -19.21910  eV     1   --> A'             
     e(  2 -  2) =    -12.48792  eV     1   --> A'             
     e(  3 -  3) =     -8.33162  eV     1   --> A'             
     e(  4 -  4) =     -7.31750  eV     1   --> A''            
     e(  5 -  5) =     -7.18044  eV     1   --> A'             
     e(  6 -  6) =      0.62554  eV     1   --> A'             
     e(  7 -  7) =      1.93895  eV     1   --> A''            
     e(  8 -  8) =      2.04543  eV     1   --> A'             
     e(  9 -  9) =      2.15897  eV     1   -->   ?

 **************************************************************************

 **************************************************************************

                    xk=(   0.12500,   0.00000,   0.00000  )

     Band symmetry, C_s (m)     point group:

     e(  1 -  1) =    -19.19845  eV     1   --> A'             
     e(  2 -  2) =    -12.47007  eV     1   --> A'             
     e(  3 -  3) =     -8.40226  eV     1   --> A'             
     e(  4 -  4) =     -7.29077  eV     1   --> A''            
     e(  5 -  5) =     -7.18340  eV     1   --> A'             
     e(  6 -  6) =      0.65046  eV     1   --> A'             
     e(  7 -  7) =      1.94710  eV     1   --> A''            
     e(  8 -  8) =      2.07463  eV     1   --> A'             
     e(  9 -  9) =      2.18446  eV     1   -->   ?

 **************************************************************************

 **************************************************************************

                    xk=(   0.13000,   0.00000,   0.00000  )

     Band symmetry, C_s (m)     point group:

     e(  1 -  1) =    -19.17696  eV     1   --> A'             
     e(  2 -  2) =    -12.45158  eV     1   --> A'             
     e(  3 -  3) =     -8.47474  eV     1   --> A'             
     e(  4 -  4) =     -7.26297  eV     1   --> A''            
     e(  5 -  5) =     -7.18656  eV     1   --> A'             
     e(  6 -  6) =      0.67637  eV     1   --> A'             
     e(  7 -  7) =      1.95502  eV     1   --> A''            
     e(  8 -  8) =      2.10486  eV     1   --> A'             
     e(  9 -  9) =      2.21144  eV     1   -->   ?

 **************************************************************************

 **************************************************************************

                    xk=(   0.13500,   0.00000,   0.00000  )

     Band symmetry, C_s (m)     point group:

     e(  1 -  1) =    -19.15461  eV     1   --> A'             
     e(  2 -  2) =    -12.43247  eV     1   --> A'             
     e(  3 -  3) =     -8.54892  eV     1   --> A'             
     e(  4 -  4) =     -7.23408  eV     1   --> A''            
     e(  5 -  5) =     -7.18985  eV     1   --> A'             
     e(  6 -  6) =      0.70313  eV     1   --> A'             
     e(  7 -  7) =      1.96254  eV     1   --> A''            
     e(  8 -  8) =      2.13619  eV     1   --> A'             
     e(  9 -  9) =      2.23806  eV     1   -->   ?

 **************************************************************************

 **************************************************************************

                    xk=(   0.14000,   0.00000,   0.00000  )

     Band symmetry, C_s (m)     point group:

     e(  1 -  1) =    -19.13146  eV     1   --> A'             
     e(  2 -  2) =    -12.41281  eV     1   --> A'             
     e(  3 -  3) =     -8.62471  eV     1   --> A'             
     e(  4 -  4) =     -7.20412  eV     1   --> A''            
     e(  5 -  5) =     -7.19344  eV     1   --> A'             
     e(  6 -  6) =      0.73084  eV     1   --> A'             
     e(  7 -  7) =      1.96957  eV     1   --> A''            
     e(  8 -  8) =      2.16861  eV     1   --> A'             
     e(  9 -  9) =      2.26584  eV     1   --> A'             

 **************************************************************************

 **************************************************************************

                    xk=(   0.14500,   0.00000,   0.00000  )

     Band symmetry, C_s (m)     point group:

     e(  1 -  1) =    -19.10746  eV     1   --> A'             
     e(  2 -  2) =    -12.39249  eV     1   --> A'             
     e(  3 -  3) =     -8.70199  eV     1   --> A'             
     e(  4 -  4) =     -7.19720  eV     1   --> A'             
     e(  5 -  5) =     -7.17309  eV     1   --> A''            
     e(  6 -  6) =      0.75953  eV     1   --> A'             
     e(  7 -  7) =      1.97604  eV     1   --> A''            
     e(  8 -  8) =      2.20228  eV     1   --> A'             
     e(  9 -  9) =      2.29603  eV     1   -->   ?

 **************************************************************************

 **************************************************************************

                    xk=(   0.15000,   0.00000,   0.00000  )

     Band symmetry, C_s (m)     point group:

     e(  1 -  1) =    -19.08263  eV     1   --> A'             
     e(  2 -  2) =    -12.37163  eV     1   --> A'             
     e(  3 -  3) =     -8.78064  eV     1   --> A'             
     e(  4 -  4) =     -7.20125  eV     1   --> A'             
     e(  5 -  5) =     -7.14099  eV     1   --> A''            
     e(  6 -  6) =      0.78900  eV     1   --> A'             
     e(  7 -  7) =      1.98182  eV     1   --> A''            
     e(  8 -  8) =      2.23674  eV     1   -->   ?
     e(  9 -  9) =      2.32666  eV     1   -->   ?

 **************************************************************************

 **************************************************************************

                    xk=(   0.15500,   0.00000,   0.00000  )

     Band symmetry, C_s (m)     point group:

     e(  1 -  1) =    -19.05696  eV     1   --> A'             
     e(  2 -  2) =    -12.35022  eV     1   --> A'             
     e(  3 -  3) =     -8.86055  eV     1   --> A'             
     e(  4 -  4) =     -7.20558  eV     1   --> A'             
     e(  5 -  5) =     -7.10781  eV     1   --> A''            
     e(  6 -  6) =      0.81942  eV     1   --> A'             
     e(  7 -  7) =      1.98678  eV     1   --> A''            
     e(  8 -  8) =      2.27230  eV     1   --> A'             
     e(  9 -  9) =      2.35654  eV     1   -->   ?

 **************************************************************************

 **************************************************************************

                    xk=(   0.16000,   0.00000,   0.00000  )

     Band symmetry, C_s (m)     point group:

     e(  1 -  1) =    -19.03047  eV     1   --> A'             
     e(  2 -  2) =    -12.32833  eV     1   --> A'             
     e(  3 -  3) =     -8.94163  eV     1   --> A'             
     e(  4 -  4) =     -7.21028  eV     1   --> A'             
     e(  5 -  5) =     -7.07357  eV     1   --> A''            
     e(  6 -  6) =      0.85071  eV     1   --> A'             
     e(  7 -  7) =      1.99082  eV     1   --> A''            
     e(  8 -  8) =      2.30900  eV     1   --> A'             
     e(  9 -  9) =      2.38856  eV     1   -->   ?

 **************************************************************************

 **************************************************************************

                    xk=(   0.16500,   0.00000,   0.00000  )

     Band symmetry, C_s (m)     point group:

     e(  1 -  1) =    -19.00314  eV     1   --> A'             
     e(  2 -  2) =    -12.30593  eV     1   --> A'             
     e(  3 -  3) =     -9.02374  eV     1   --> A'             
     e(  4 -  4) =     -7.21531  eV     1   --> A'             
     e(  5 -  5) =     -7.03825  eV     1   --> A''            
     e(  6 -  6) =      0.88287  eV     1   --> A'             
     e(  7 -  7) =      1.99381  eV     1   --> A''            
     e(  8 -  8) =      2.34680  eV     1   --> A'             
     e(  9 -  9) =      2.42231  eV     1   -->   ?

 **************************************************************************

 **************************************************************************

                    xk=(   0.17000,   0.00000,   0.00000  )

     Band symmetry, C_s (m)     point group:

     e(  1 -  1) =    -18.97500  eV     1   --> A'             
     e(  2 -  2) =    -12.28308  eV     1   --> A'             
     e(  3 -  3) =     -9.10679  eV     1   --> A'             
     e(  4 -  4) =     -7.22076  eV     1   --> A'             
     e(  5 -  5) =     -7.00188  eV     1   --> A''            
     e(  6 -  6) =      0.91588  eV     1   --> A'             
     e(  7 -  7) =      1.99558  eV     1   --> A''            
     e(  8 -  8) =      2.38557  eV     1   --> A'             
     e(  9 -  9) =      2.45552  eV     1   --> A'             

 **************************************************************************

 **************************************************************************

                    xk=(   0.17500,   0.00000,   0.00000  )

     Band symmetry, C_s (m)     point group:

     e(  1 -  1) =    -18.94600  eV     1   --> A'             
     e(  2 -  2) =    -12.25980  eV     1   --> A'             
     e(  3 -  3) =     -9.19066  eV     1   --> A'             
     e(  4 -  4) =     -7.22651  eV     1   --> A'             
     e(  5 -  5) =     -6.96443  eV     1   --> A''            
     e(  6 -  6) =      0.94972  eV     1   --> A'             
     e(  7 -  7) =      1.99601  eV     1   --> A''            
     e(  8 -  8) =      2.42567  eV     1   --> A'             
     e(  9 -  9) =      2.49044  eV     1   --> A'             

 **************************************************************************

 **************************************************************************

                    xk=(   0.18000,   0.00000,   0.00000  )

     Band symmetry, C_s (m)     point group:

     e(  1 -  1) =    -18.91618  eV     1   --> A'             
     e(  2 -  2) =    -12.23617  eV     1   --> A'             
     e(  3 -  3) =     -9.27523  eV     1   --> A'             
     e(  4 -  4) =     -7.23278  eV     1   --> A'             
     e(  5 -  5) =     -6.92593  eV     1   --> A''            
     e(  6 -  6) =      0.98439  eV     1   --> A'             
     e(  7 -  7) =      1.99499  eV     1   --> A''            
     e(  8 -  8) =      2.46625  eV     1   --> A'             
     e(  9 -  9) =      2.52749  eV     1   -->   ?

 **************************************************************************

 **************************************************************************

                    xk=(   0.18500,   0.00000,   0.00000  )

     Band symmetry, C_s (m)     point group:

     e(  1 -  1) =    -18.88554  eV     1   --> A'             
     e(  2 -  2) =    -12.21222  eV     1   --> A'             
     e(  3 -  3) =     -9.36039  eV     1   --> A'             
     e(  4 -  4) =     -7.23951  eV     1   --> A'             
     e(  5 -  5) =     -6.88637  eV     1   --> A''            
     e(  6 -  6) =      1.01986  eV     1   --> A'             
     e(  7 -  7) =      1.99228  eV     1   --> A''            
     e(  8 -  8) =      2.50825  eV     1   --> A'             
     e(  9 -  9) =      2.56332  eV     1   -->   ?

 **************************************************************************

 **************************************************************************

                    xk=(   0.19000,   0.00000,   0.00000  )

     Band symmetry, C_s (m)     point group:

     e(  1 -  1) =    -18.85406  eV     1   --> A'             
     e(  2 -  2) =    -12.18801  eV     1   --> A'             
     e(  3 -  3) =     -9.44601  eV     1   --> A'             
     e(  4 -  4) =     -7.24675  eV     1   --> A'             
     e(  5 -  5) =     -6.84575  eV     1   --> A''            
     e(  6 -  6) =      1.05610  eV     1   --> A'             
     e(  7 -  7) =      1.98782  eV     1   --> A''            
     e(  8 -  8) =      2.55112  eV     1   --> A'             
     e(  9 -  9) =      2.60109  eV     1   --> A'             

 **************************************************************************

 **************************************************************************

                    xk=(   0.19500,   0.00000,   0.00000  )

     Band symmetry, C_s (m)     point group:

     e(  1 -  1) =    -18.82179  eV     1   --> A'             
     e(  2 -  2) =    -12.16364  eV     1   --> A'             
     e(  3 -  3) =     -9.53196  eV     1   --> A'             
     e(  4 -  4) =     -7.25450  eV     1   --> A'             
     e(  5 -  5) =     -6.80408  eV     1   --> A''            
     e(  6 -  6) =      1.09313  eV     1   --> A'             
     e(  7 -  7) =      1.98143  eV     1   --> A''            
     e(  8 -  8) =      2.59510  eV     1   --> A'             
     e(  9 -  9) =      2.64060  eV     1   -->   ?

 **************************************************************************

 **************************************************************************

                    xk=(   0.20000,   0.00000,   0.00000  )

     Band symmetry, C_s (m)     point group:

     e(  1 -  1) =    -18.78867  eV     1   --> A'             
     e(  2 -  2) =    -12.13915  eV     1   --> A'             
     e(  3 -  3) =     -9.61809  eV     1   --> A'             
     e(  4 -  4) =     -7.26278  eV     1   --> A'             
     e(  5 -  5) =     -6.76136  eV     1   --> A''            
     e(  6 -  6) =      1.13090  eV     1   --> A'             
     e(  7 -  7) =      1.97293  eV     1   --> A''            
     e(  8 -  8) =      2.64005  eV     1   --> A'             
     e(  9 -  9) =      2.68016  eV     1   -->   ?

 **************************************************************************

 **************************************************************************

                    xk=(   0.20500,   0.00000,   0.00000  )

     Band symmetry, C_s (m)     point group:

     e(  1 -  1) =    -18.75472  eV     1   --> A'             
     e(  2 -  2) =    -12.11464  eV     1   --> A'             
     e(  3 -  3) =     -9.70426  eV     1   --> A'             
     e(  4 -  4) =     -7.27159  eV     1   --> A'             
     e(  5 -  5) =     -6.71759  eV     1   --> A''            
     e(  6 -  6) =      1.16948  eV     1   --> A'             
     e(  7 -  7) =      1.96225  eV     1   --> A''            
     e(  8 -  8) =      2.68596  eV     1   --> A'             
     e(  9 -  9) =      2.72118  eV     1   -->   ?

 **************************************************************************

 **************************************************************************

                    xk=(   0.21000,   0.00000,   0.00000  )

     Band symmetry, C_s (m)     point group:

     e(  1 -  1) =    -18.71996  eV     1   --> A'             
     e(  2 -  2) =    -12.09024  eV     1   --> A'             
     e(  3 -  3) =     -9.79028  eV     1   --> A'             
     e(  4 -  4) =     -7.28105  eV     1   --> A'             
     e(  5 -  5) =     -6.67277  eV     1   --> A''            
     e(  6 -  6) =      1.20866  eV     1   --> A'             
     e(  7 -  7) =      1.94908  eV     1   --> A''            
     e(  8 -  8) =      2.73281  eV     1   -->   ?
     e(  9 -  9) =      2.76293  eV     1   -->   ?

 **************************************************************************

 **************************************************************************

                    xk=(   0.21500,   0.00000,   0.00000  )

     Band symmetry, C_s (m)     point group:

     e(  1 -  1) =    -18.68439  eV     1   --> A'             
     e(  2 -  2) =    -12.06617  eV     1   --> A'             
     e(  3 -  3) =     -9.87600  eV     1   --> A'             
     e(  4 -  4) =     -7.29116  eV     1   --> A'             
     e(  5 -  5) =     -6.62691  eV     1   --> A''            
     e(  6 -  6) =      1.24862  eV     1   --> A'             
     e(  7 -  7) =      1.93344  eV     1   --> A''            
     e(  8 -  8) =      2.78037  eV     1   --> A'             
     e(  9 -  9) =      2.80615  eV     1   -->   ?

 **************************************************************************

 **************************************************************************

                    xk=(   0.22000,   0.00000,   0.00000  )

     Band symmetry, C_s (m)     point group:

     e(  1 -  1) =    -18.64798  eV     1   --> A'             
     e(  2 -  2) =    -12.04241  eV     1   --> A'             
     e(  3 -  3) =     -9.96115  eV     1   --> A'             
     e(  4 -  4) =     -7.30182  eV     1   --> A'             
     e(  5 -  5) =     -6.58000  eV     1   --> A''            
     e(  6 -  6) =      1.28924  eV     1   --> A'             
     e(  7 -  7) =      1.91514  eV     1   --> A''            
     e(  8 -  8) =      2.82868  eV     1   --> A'             
     e(  9 -  9) =      2.85051  eV     1   -->   ?

 **************************************************************************

 **************************************************************************

                    xk=(   0.22500,   0.00000,   0.00000  )

     Band symmetry, C_s (m)     point group:

     e(  1 -  1) =    -18.61075  eV     1   --> A'             
     e(  2 -  2) =    -12.01928  eV     1   --> A'             
     e(  3 -  3) =    -10.04552  eV     1   --> A'             
     e(  4 -  4) =     -7.31319  eV     1   --> A'             
     e(  5 -  5) =     -6.53207  eV     1   --> A''            
     e(  6 -  6) =      1.33050  eV     1   --> A'             
     e(  7 -  7) =      1.89402  eV     1   --> A''            
     e(  8 -  8) =      2.87759  eV     1   -->   ?
     e(  9 -  9) =      2.89670  eV     1   -->   ?

 **************************************************************************

 **************************************************************************

                    xk=(   0.23000,   0.00000,   0.00000  )

     Band symmetry, C_s (m)     point group:

     e(  1 -  1) =    -18.57272  eV     1   --> A'             
     e(  2 -  2) =    -11.99701  eV     1   --> A'             
     e(  3 -  3) =    -10.12882  eV     1   --> A'             
     e(  4 -  4) =     -7.32528  eV     1   --> A'             
     e(  5 -  5) =     -6.48309  eV     1   --> A''            
     e(  6 -  6) =      1.37251  eV     1   --> A'             
     e(  7 -  7) =      1.87006  eV     1   --> A''            
     e(  8 -  8) =      2.92631  eV     1   -->   ?
     e(  9 -  9) =      2.94390  eV     1   --> A'             

 **************************************************************************

 **************************************************************************

                    xk=(   0.23500,   0.00000,   0.00000  )

     Band symmetry, C_s (m)     point group:

     e(  1 -  1) =    -18.53387  eV     1   --> A'             
     e(  2 -  2) =    -11.97587  eV     1   --> A'             
     e(  3 -  3) =    -10.21069  eV     1   --> A'             
     e(  4 -  4) =     -7.33804  eV     1   --> A'             
     e(  5 -  5) =     -6.43309  eV     1   --> A''            
     e(  6 -  6) =      1.41499  eV     1   --> A'             
     e(  7 -  7) =      1.84305  eV     1   --> A''            
     e(  8 -  8) =      2.97498  eV     1   -->   ?
     e(  9 -  9) =      2.99369  eV     1   --> A'             

 **************************************************************************

 **************************************************************************

                    xk=(   0.24000,   0.00000,   0.00000  )

     Band symmetry, C_s (m)     point group:

     e(  1 -  1) =    -18.49421  eV     1   --> A'             
     e(  2 -  2) =    -11.95629  eV     1   --> A'             
     e(  3 -  3) =    -10.29075  eV     1   --> A'             
     e(  4 -  4) =     -7.35159  eV     1   --> A'             
     e(  5 -  5) =     -6.38206  eV     1   --> A''            
     e(  6 -  6) =      1.45818  eV     1   --> A'             
     e(  7 -  7) =      1.81300  eV     1   --> A''            
     e(  8 -  8) =      3.02413  eV     1   -->   ?
     e(  9 -  9) =      3.04585  eV     1   -->   ?

 **************************************************************************

 **************************************************************************

                    xk=(   0.24500,   0.00000,   0.00000  )

     Band symmetry, C_s (m)     point group:

     e(  1 -  1) =    -18.45373  eV     1   --> A'             
     e(  2 -  2) =    -11.93863  eV     1   --> A'             
     e(  3 -  3) =    -10.36849  eV     1   --> A'             
     e(  4 -  4) =     -7.36582  eV     1   --> A'             
     e(  5 -  5) =     -6.33000  eV     1   --> A''            
     e(  6 -  6) =      1.50195  eV     1   --> A'             
     e(  7 -  7) =      1.77983  eV     1   --> A''            
     e(  8 -  8) =      3.07310  eV     1   -->   ?
     e(  9 -  9) =      3.09930  eV     1   --> A'             

 **************************************************************************

 **************************************************************************

                    xk=(   0.25000,   0.00000,   0.00000  )

     Band symmetry, C_s (m)     point group:

     e(  1 -  1) =    -18.41244  eV     1   --> A'             
     e(  2 -  2) =    -11.92349  eV     1   --> A'             
     e(  3 -  3) =    -10.44335  eV     1   --> A'             
     e(  4 -  4) =     -7.38084  eV     1   --> A'             
     e(  5 -  5) =     -6.27693  eV     1   --> A''            
     e(  6 -  6) =      1.54634  eV     1   --> A'             
     e(  7 -  7) =      1.74352  eV     1   --> A''            
     e(  8 -  8) =      3.12288  eV     1   -->   ?
     e(  9 -  9) =      3.15410  eV     1   -->   ?

 **************************************************************************

 **************************************************************************

                    xk=(   0.25500,   0.00000,   0.00000  )

     Band symmetry, C_s (m)     point group:

     e(  1 -  1) =    -18.37034  eV     1   --> A'             
     e(  2 -  2) =    -11.91150  eV     1   --> A'             
     e(  3 -  3) =    -10.51465  eV     1   --> A'             
     e(  4 -  4) =     -7.39662  eV     1   --> A'             
     e(  5 -  5) =     -6.22284  eV     1   --> A''            
     e(  6 -  6) =      1.59124  eV     1   --> A'             
     e(  7 -  7) =      1.70399  eV     1   --> A''            
     e(  8 -  8) =      3.17332  eV     1   -->   ?
     e(  9 -  9) =      3.21011  eV     1   --> A'             

 **************************************************************************

 **************************************************************************

                    xk=(   0.26000,   0.00000,   0.00000  )

     Band symmetry, C_s (m)     point group:

     e(  1 -  1) =    -18.32743  eV     1   --> A'             
     e(  2 -  2) =    -11.90340  eV     1   --> A'             
     e(  3 -  3) =    -10.58159  eV     1   --> A'             
     e(  4 -  4) =     -7.41322  eV     1   --> A'             
     e(  5 -  5) =     -6.16773  eV     1   --> A''            
     e(  6 -  6) =      1.63662  eV     1   --> A'             
     e(  7 -  7) =      1.66124  eV     1   --> A''            
     e(  8 -  8) =      3.22499  eV     1   -->   ?
     e(  9 -  9) =      3.26749  eV     1   -->   ?

 **************************************************************************

 **************************************************************************

                    xk=(   0.26500,   0.00000,   0.00000  )

     Band symmetry, C_s (m)     point group:

     e(  1 -  1) =    -18.28372  eV     1   --> A'             
     e(  2 -  2) =    -11.90011  eV     1   --> A'             
     e(  3 -  3) =    -10.64327  eV     1   --> A'             
     e(  4 -  4) =     -7.43068  eV     1   --> A'             
     e(  5 -  5) =     -6.11162  eV     1   --> A''            
     e(  6 -  6) =      1.61533  eV     1   --> A''            
     e(  7 -  7) =      1.68260  eV     1   --> A'             
     e(  8 -  8) =      3.27640  eV     1   --> A'             
     e(  9 -  9) =      3.32580  eV     1   --> A'             

 **************************************************************************

 **************************************************************************

                    xk=(   0.27000,   0.00000,   0.00000  )

     Band symmetry, C_s (m)     point group:

     e(  1 -  1) =    -18.23921  eV     1   --> A'             
     e(  2 -  2) =    -11.90254  eV     1   --> A'             
     e(  3 -  3) =    -10.69875  eV     1   --> A'             
     e(  4 -  4) =     -7.44897  eV     1   --> A'             
     e(  5 -  5) =     -6.05451  eV     1   --> A''            
     e(  6 -  6) =      1.56625  eV     1   --> A''            
     e(  7 -  7) =      1.72910  eV     1   --> A'             
     e(  8 -  8) =      3.33048  eV     1   -->   ?
     e(  9 -  9) =      3.38522  eV     1   --> A'             

 **************************************************************************

 **************************************************************************

                    xk=(   0.27500,   0.00000,   0.00000  )

     Band symmetry, C_s (m)     point group:

     e(  1 -  1) =    -18.19392  eV     1   --> A'             
     e(  2 -  2) =    -11.91170  eV     1   --> A'             
     e(  3 -  3) =    -10.74707  eV     1   --> A'             
     e(  4 -  4) =     -7.46819  eV     1   --> A'             
     e(  5 -  5) =     -5.99639  eV     1   --> A''            
     e(  6 -  6) =      1.51403  eV     1   --> A''            
     e(  7 -  7) =      1.77608  eV     1   --> A'             
     e(  8 -  8) =      3.38380  eV     1   -->   ?
     e(  9 -  9) =      3.44575  eV     1   --> A'             

 **************************************************************************

 **************************************************************************

                    xk=(   0.28000,   0.00000,   0.00000  )

     Band symmetry, C_s (m)     point group:

     e(  1 -  1) =    -18.14782  eV     1   --> A'             
     e(  2 -  2) =    -11.92832  eV     1   --> A'             
     e(  3 -  3) =    -10.78735  eV     1   --> A'             
     e(  4 -  4) =     -7.48827  eV     1   --> A'             
     e(  5 -  5) =     -5.93729  eV     1   --> A''            
     e(  6 -  6) =      1.45878  eV     1   --> A''            
     e(  7 -  7) =      1.82355  eV     1   --> A'             
     e(  8 -  8) =      3.43886  eV     1   --> A'             
     e(  9 -  9) =      3.50726  eV     1   --> A'             

 **************************************************************************

 **************************************************************************

                    xk=(   0.28500,   0.00000,   0.00000  )

     Band symmetry, C_s (m)     point group:

     e(  1 -  1) =    -18.10091  eV     1   --> A'             
     e(  2 -  2) =    -11.95293  eV     1   --> A'             
     e(  3 -  3) =    -10.81899  eV     1   --> A'             
     e(  4 -  4) =     -7.50918  eV     1   --> A'             
     e(  5 -  5) =     -5.87719  eV     1   --> A''            
     e(  6 -  6) =      1.40057  eV     1   --> A''            
     e(  7 -  7) =      1.87152  eV     1   --> A'             
     e(  8 -  8) =      3.49511  eV     1   --> A'             
     e(  9 -  9) =      3.57003  eV     1   --> A'             

 **************************************************************************

 **************************************************************************

                    xk=(   0.29000,   0.00000,   0.00000  )

     Band symmetry, C_s (m)     point group:

     e(  1 -  1) =    -18.05319  eV     1   --> A'             
     e(  2 -  2) =    -11.98582  eV     1   --> A'             
     e(  3 -  3) =    -10.84171  eV     1   --> A'             
     e(  4 -  4) =     -7.53095  eV     1   --> A'             
     e(  5 -  5) =     -5.81610  eV     1   --> A''            
     e(  6 -  6) =      1.33949  eV     1   --> A''            
     e(  7 -  7) =      1.91997  eV     1   --> A'             
     e(  8 -  8) =      3.55251  eV     1   --> A'             
     e(  9 -  9) =      3.63361  eV     1   -->   ?

 **************************************************************************

 **************************************************************************

                    xk=(   0.29500,   0.00000,   0.00000  )

     Band symmetry, C_s (m)     point group:

     e(  1 -  1) =    -18.00469  eV     1   --> A'             
     e(  2 -  2) =    -12.02688  eV     1   --> A'             
     e(  3 -  3) =    -10.85564  eV     1   --> A'             
     e(  4 -  4) =     -7.55365  eV     1   --> A'             
     e(  5 -  5) =     -5.75403  eV     1   --> A''            
     e(  6 -  6) =      1.27562  eV     1   --> A''            
     e(  7 -  7) =      1.96891  eV     1   --> A'             
     e(  8 -  8) =      3.61094  eV     1   --> A'             
     e(  9 -  9) =      3.69826  eV     1   --> A'             

 **************************************************************************

 **************************************************************************

                    xk=(   0.30000,   0.00000,   0.00000  )

     Band symmetry, C_s (m)     point group:

     e(  1 -  1) =    -17.95540  eV     1   --> A'             
     e(  2 -  2) =    -12.07563  eV     1   --> A'             
     e(  3 -  3) =    -10.86129  eV     1   --> A'             
     e(  4 -  4) =     -7.57728  eV     1   --> A'             
     e(  5 -  5) =     -5.69100  eV     1   --> A''            
     e(  6 -  6) =      1.20908  eV     1   --> A''            
     e(  7 -  7) =      2.01832  eV     1   --> A'             
     e(  8 -  8) =      3.67038  eV     1   --> A'             
     e(  9 -  9) =      3.76384  eV     1   --> A'             

 **************************************************************************

 **************************************************************************

                    xk=(   0.30500,   0.00000,   0.00000  )

     Band symmetry, C_s (m)     point group:

     e(  1 -  1) =    -17.90532  eV     1   --> A'             
     e(  2 -  2) =    -12.13129  eV     1   --> A'             
     e(  3 -  3) =    -10.85938  eV     1   --> A'             
     e(  4 -  4) =     -7.60179  eV     1   --> A'             
     e(  5 -  5) =     -5.62699  eV     1   --> A''            
     e(  6 -  6) =      1.13999  eV     1   --> A''            
     e(  7 -  7) =      2.06821  eV     1   --> A'             
     e(  8 -  8) =      3.73093  eV     1   --> A'             
     e(  9 -  9) =      3.83041  eV     1   --> A'             

 **************************************************************************

 **************************************************************************

                    xk=(   0.31000,   0.00000,   0.00000  )

     Band symmetry, C_s (m)     point group:

     e(  1 -  1) =    -17.85446  eV     1   --> A'             
     e(  2 -  2) =    -12.19298  eV     1   --> A'             
     e(  3 -  3) =    -10.85077  eV     1   --> A'             
     e(  4 -  4) =     -7.62721  eV     1   --> A'             
     e(  5 -  5) =     -5.56202  eV     1   --> A''            
     e(  6 -  6) =      1.06844  eV     1   --> A''            
     e(  7 -  7) =      2.11855  eV     1   --> A'             
     e(  8 -  8) =      3.79298  eV     1   --> A'             
     e(  9 -  9) =      3.89824  eV     1   --> A'             

 **************************************************************************

 **************************************************************************

                    xk=(   0.31500,   0.00000,   0.00000  )

     Band symmetry, C_s (m)     point group:

     e(  1 -  1) =    -17.80281  eV     1   --> A'             
     e(  2 -  2) =    -12.25980  eV     1   --> A'             
     e(  3 -  3) =    -10.83636  eV     1   --> A'             
     e(  4 -  4) =     -7.65361  eV     1   --> A'             
     e(  5 -  5) =     -5.49609  eV     1   --> A''            
     e(  6 -  6) =      0.99459  eV     1   --> A''            
     e(  7 -  7) =      2.16941  eV     1   --> A'             
     e(  8 -  8) =      3.85580  eV     1   --> A'             
     e(  9 -  9) =      3.96669  eV     1   --> A'             

 **************************************************************************

 **************************************************************************

                    xk=(   0.32000,   0.00000,   0.00000  )

     Band symmetry, C_s (m)     point group:

     e(  1 -  1) =    -17.75039  eV     1   --> A'             
     e(  2 -  2) =    -12.33089  eV     1   --> A'             
     e(  3 -  3) =    -10.81698  eV     1   --> A'             
     e(  4 -  4) =     -7.68093  eV     1   --> A'             
     e(  5 -  5) =     -5.42922  eV     1   --> A''            
     e(  6 -  6) =      0.91850  eV     1   --> A''            
     e(  7 -  7) =      2.22075  eV     1   --> A'             
     e(  8 -  8) =      3.92032  eV     1   -->   ?
     e(  9 -  9) =      4.03629  eV     1   --> A'             

 **************************************************************************

 **************************************************************************

                    xk=(   0.32500,   0.00000,   0.00000  )

     Band symmetry, C_s (m)     point group:

     e(  1 -  1) =    -17.69718  eV     1   --> A'             
     e(  2 -  2) =    -12.40551  eV     1   --> A'             
     e(  3 -  3) =    -10.79337  eV     1   --> A'             
     e(  4 -  4) =     -7.70916  eV     1   --> A'             
     e(  5 -  5) =     -5.36140  eV     1   --> A''            
     e(  6 -  6) =      0.84037  eV     1   --> A''            
     e(  7 -  7) =      2.27260  eV     1   --> A'             
     e(  8 -  8) =      3.98599  eV     1   -->   ?
     e(  9 -  9) =      4.10703  eV     1   -->   ?

 **************************************************************************

 **************************************************************************

                    xk=(   0.33000,   0.00000,   0.00000  )

     Band symmetry, C_s (m)     point group:

     e(  1 -  1) =    -17.64322  eV     1   --> A'             
     e(  2 -  2) =    -12.48302  eV     1   --> A'             
     e(  3 -  3) =    -10.76621  eV     1   --> A'             
     e(  4 -  4) =     -7.73844  eV     1   --> A'             
     e(  5 -  5) =     -5.29264  eV     1   --> A''            
     e(  6 -  6) =      0.76027  eV     1   --> A''            
     e(  7 -  7) =      2.32495  eV     1   --> A'             
     e(  8 -  8) =      4.05232  eV     1   --> A'             
     e(  9 -  9) =      4.17862  eV     1   -->   ?

 **************************************************************************

 **************************************************************************

                    xk=(   0.33500,   0.00000,   0.00000  )

     Band symmetry, C_s (m)     point group:

     e(  1 -  1) =    -17.58848  eV     1   --> A'             
     e(  2 -  2) =    -12.56285  eV     1   --> A'             
     e(  3 -  3) =    -10.73598  eV     1   --> A'             
     e(  4 -  4) =     -7.76857  eV     1   --> A'             
     e(  5 -  5) =     -5.22296  eV     1   --> A''            
     e(  6 -  6) =      0.67837  eV     1   --> A''            
     e(  7 -  7) =      2.37785  eV     1   --> A'             
     e(  8 -  8) =      4.12085  eV     1   -->   ?
     e(  9 -  9) =      4.25099  eV     1   -->   ?

 **************************************************************************

 **************************************************************************

                    xk=(   0.34000,   0.00000,   0.00000  )

     Band symmetry, C_s (m)     point group:

     e(  1 -  1) =    -17.53296  eV     1   --> A'             
     e(  2 -  2) =    -12.64453  eV     1   --> A'             
     e(  3 -  3) =    -10.70315  eV     1   --> A'             
     e(  4 -  4) =     -7.79960  eV     1   --> A'             
     e(  5 -  5) =     -5.15235  eV     1   --> A''            
     e(  6 -  6) =      0.59476  eV     1   --> A''            
     e(  7 -  7) =      2.43128  eV     1   --> A'             
     e(  8 -  8) =      4.18957  eV     1   --> A'             
     e(  9 -  9) =      4.32427  eV     1   --> A'             

 **************************************************************************

 **************************************************************************

                    xk=(   0.34500,   0.00000,   0.00000  )

     Band symmetry, C_s (m)     point group:

     e(  1 -  1) =    -17.47670  eV     1   --> A'             
     e(  2 -  2) =    -12.72774  eV     1   --> A'             
     e(  3 -  3) =    -10.66810  eV     1   --> A'             
     e(  4 -  4) =     -7.83165  eV     1   --> A'             
     e(  5 -  5) =     -5.08083  eV     1   --> A''            
     e(  6 -  6) =      0.50955  eV     1   --> A''            
     e(  7 -  7) =      2.48529  eV     1   --> A'             
     e(  8 -  8) =      4.26024  eV     1   --> A'             
     e(  9 -  9) =      4.39888  eV     1   --> A'             

 **************************************************************************

 **************************************************************************

                    xk=(   0.35000,   0.00000,   0.00000  )

     Band symmetry, C_s (m)     point group:

     e(  1 -  1) =    -17.41964  eV     1   --> A'             
     e(  2 -  2) =    -12.81210  eV     1   --> A'             
     e(  3 -  3) =    -10.63108  eV     1   --> A'             
     e(  4 -  4) =     -7.86447  eV     1   --> A'             
     e(  5 -  5) =     -5.00840  eV     1   --> A''            
     e(  6 -  6) =      0.42289  eV     1   --> A''            
     e(  7 -  7) =      2.53992  eV     1   --> A'             
     e(  8 -  8) =      4.33232  eV     1   --> A'             
     e(  9 -  9) =      4.47397  eV     1   --> A'             

 **************************************************************************

 **************************************************************************

                    xk=(   0.35500,   0.00000,   0.00000  )

     Band symmetry, C_s (m)     point group:

     e(  1 -  1) =    -17.36184  eV     1   --> A'             
     e(  2 -  2) =    -12.89740  eV     1   --> A'             
     e(  3 -  3) =    -10.59236  eV     1   --> A'             
     e(  4 -  4) =     -7.89821  eV     1   --> A'             
     e(  5 -  5) =     -4.93507  eV     1   --> A''            
     e(  6 -  6) =      0.33488  eV     1   --> A''            
     e(  7 -  7) =      2.59518  eV     1   --> A'             
     e(  8 -  8) =      4.40555  eV     1   --> A'             
     e(  9 -  9) =      4.55025  eV     1   --> A'             

 **************************************************************************

 **************************************************************************

                    xk=(   0.36000,   0.00000,   0.00000  )

     Band symmetry, C_s (m)     point group:

     e(  1 -  1) =    -17.30329  eV     1   --> A'             
     e(  2 -  2) =    -12.98343  eV     1   --> A'             
     e(  3 -  3) =    -10.55221  eV     1   --> A'             
     e(  4 -  4) =     -7.93284  eV     1   --> A'             
     e(  5 -  5) =     -4.86085  eV     1   --> A''            
     e(  6 -  6) =      0.24562  eV     1   --> A''            
     e(  7 -  7) =      2.65107  eV     1   --> A'             
     e(  8 -  8) =      4.48022  eV     1   --> A'             
     e(  9 -  9) =      4.62746  eV     1   -->   ?

 **************************************************************************

 **************************************************************************

                    xk=(   0.36500,   0.00000,   0.00000  )

     Band symmetry, C_s (m)     point group:

     e(  1 -  1) =    -17.24398  eV     1   --> A'             
     e(  2 -  2) =    -13.07001  eV     1   --> A'             
     e(  3 -  3) =    -10.51074  eV     1   --> A'             
     e(  4 -  4) =     -7.96834  eV     1   --> A'             
     e(  5 -  5) =     -4.78576  eV     1   --> A''            
     e(  6 -  6) =      0.15524  eV     1   --> A''            
     e(  7 -  7) =      2.70765  eV     1   --> A'             
     e(  8 -  8) =      4.55621  eV     1   --> A'             
     e(  9 -  9) =      4.70530  eV     1   --> A'             

 **************************************************************************

 **************************************************************************

                    xk=(   0.37000,   0.00000,   0.00000  )

     Band symmetry, C_s (m)     point group:

     e(  1 -  1) =    -17.18394  eV     1   --> A'             
     e(  2 -  2) =    -13.15698  eV     1   --> A'             
     e(  3 -  3) =    -10.46813  eV     1   --> A'             
     e(  4 -  4) =     -8.00471  eV     1   --> A'             
     e(  5 -  5) =     -4.70981  eV     1   --> A''            
     e(  6 -  6) =      0.06380  eV     1   --> A''            
     e(  7 -  7) =      2.76495  eV     1   --> A'             
     e(  8 -  8) =      4.63362  eV     1   --> A'             
     e(  9 -  9) =      4.78415  eV     1   --> A'             

 **************************************************************************

 **************************************************************************

                    xk=(   0.37500,   0.00000,   0.00000  )

     Band symmetry, C_s (m)     point group:

     e(  1 -  1) =    -17.12316  eV     1   --> A'             
     e(  2 -  2) =    -13.24424  eV     1   --> A'             
     e(  3 -  3) =    -10.42451  eV     1   --> A'             
     e(  4 -  4) =     -8.04199  eV     1   --> A'             
     e(  5 -  5) =     -4.63299  eV     1   --> A''            
     e(  6 -  6) =     -0.02858  eV     1   --> A''            
     e(  7 -  7) =      2.82297  eV     1   --> A'             
     e(  8 -  8) =      4.71258  eV     1   --> A'             
     e(  9 -  9) =      4.86394  eV     1   --> A'             

 **************************************************************************

 **************************************************************************

                    xk=(   0.38000,   0.00000,   0.00000  )

     Band symmetry, C_s (m)     point group:

     e(  1 -  1) =    -17.06163  eV     1   --> A'             
     e(  2 -  2) =    -13.33164  eV     1   --> A'             
     e(  3 -  3) =    -10.37992  eV     1   --> A'             
     e(  4 -  4) =     -8.08001  eV     1   --> A'             
     e(  5 -  5) =     -4.55533  eV     1   --> A''            
     e(  6 -  6) =     -0.12179  eV     1   --> A''            
     e(  7 -  7) =      2.88175  eV     1   --> A'             
     e(  8 -  8) =      4.79273  eV     1   --> A'             
     e(  9 -  9) =      4.94433  eV     1   --> A'             

 **************************************************************************

 **************************************************************************

                    xk=(   0.38500,   0.00000,   0.00000  )

     Band symmetry, C_s (m)     point group:

     e(  1 -  1) =    -16.99938  eV     1   --> A'             
     e(  2 -  2) =    -13.41912  eV     1   --> A'             
     e(  3 -  3) =    -10.33454  eV     1   --> A'             
     e(  4 -  4) =     -8.11886  eV     1   --> A'             
     e(  5 -  5) =     -4.47684  eV     1   --> A''            
     e(  6 -  6) =     -0.21575  eV     1   --> A''            
     e(  7 -  7) =      2.94134  eV     1   --> A'             
     e(  8 -  8) =      4.87442  eV     1   --> A'             
     e(  9 -  9) =      5.02561  eV     1   --> A'             

 **************************************************************************

 **************************************************************************

                    xk=(   0.39000,   0.00000,   0.00000  )

     Band symmetry, C_s (m)     point group:

     e(  1 -  1) =    -16.93641  eV     1   --> A'             
     e(  2 -  2) =    -13.50660  eV     1   --> A'             
     e(  3 -  3) =    -10.28842  eV     1   --> A'             
     e(  4 -  4) =     -8.15850  eV     1   --> A'             
     e(  5 -  5) =     -4.39752  eV     1   --> A''            
     e(  6 -  6) =     -0.31038  eV     1   --> A''            
     e(  7 -  7) =      3.00176  eV     1   --> A'             
     e(  8 -  8) =      4.95767  eV     1   --> A'             
     e(  9 -  9) =      5.10776  eV     1   -->   ?

 **************************************************************************

 **************************************************************************

                    xk=(   0.39500,   0.00000,   0.00000  )

     Band symmetry, C_s (m)     point group:

     e(  1 -  1) =    -16.87271  eV     1   --> A'             
     e(  2 -  2) =    -13.59400  eV     1   --> A'             
     e(  3 -  3) =    -10.24162  eV     1   --> A'             
     e(  4 -  4) =     -8.19890  eV     1   --> A'             
     e(  5 -  5) =     -4.31740  eV     1   --> A''            
     e(  6 -  6) =     -0.40558  eV     1   --> A''            
     e(  7 -  7) =      3.06303  eV     1   --> A'             
     e(  8 -  8) =      5.04187  eV     1   --> A'             
     e(  9 -  9) =      5.19028  eV     1   --> A'             

 **************************************************************************

 **************************************************************************

                    xk=(   0.40000,   0.00000,   0.00000  )

     Band symmetry, C_s (m)     point group:

     e(  1 -  1) =    -16.80831  eV     1   --> A'             
     e(  2 -  2) =    -13.68125  eV     1   --> A'             
     e(  3 -  3) =    -10.19423  eV     1   --> A'             
     e(  4 -  4) =     -8.24008  eV     1   --> A'             
     e(  5 -  5) =     -4.23649  eV     1   --> A''            
     e(  6 -  6) =     -0.50129  eV     1   --> A''            
     e(  7 -  7) =      3.12521  eV     1   --> A'             
     e(  8 -  8) =      5.12804  eV     1   --> A'             
     e(  9 -  9) =      5.27369  eV     1   --> A'             

 **************************************************************************

 **************************************************************************

                    xk=(   0.40500,   0.00000,   0.00000  )

     Band symmetry, C_s (m)     point group:

     e(  1 -  1) =    -16.74321  eV     1   --> A'             
     e(  2 -  2) =    -13.76830  eV     1   --> A'             
     e(  3 -  3) =    -10.14626  eV     1   --> A'             
     e(  4 -  4) =     -8.28197  eV     1   --> A'             
     e(  5 -  5) =     -4.15480  eV     1   --> A''            
     e(  6 -  6) =     -0.59741  eV     1   --> A''            
     e(  7 -  7) =      3.18827  eV     1   --> A'             
     e(  8 -  8) =      5.21506  eV     1   --> A'             
     e(  9 -  9) =      5.35743  eV     1   -->   ?

 **************************************************************************

 **************************************************************************

                    xk=(   0.41000,   0.00000,   0.00000  )

     Band symmetry, C_s (m)     point group:

     e(  1 -  1) =    -16.67742  eV     1   --> A'             
     e(  2 -  2) =    -13.85511  eV     1   --> A'             
     e(  3 -  3) =    -10.09779  eV     1   --> A'             
     e(  4 -  4) =     -8.32453  eV     1   --> A'             
     e(  5 -  5) =     -4.07235  eV     1   --> A''            
     e(  6 -  6) =     -0.69388  eV     1   --> A''            
     e(  7 -  7) =      3.25228  eV     1   --> A'             
     e(  8 -  8) =      5.30336  eV     1   --> A'             
     e(  9 -  9) =      5.44048  eV     1   --> A'             

 **************************************************************************

 **************************************************************************

                    xk=(   0.41500,   0.00000,   0.00000  )

     Band symmetry, C_s (m)     point group:

     e(  1 -  1) =    -16.61093  eV     1   --> A'             
     e(  2 -  2) =    -13.94161  eV     1   --> A'             
     e(  3 -  3) =    -10.04884  eV     1   --> A'             
     e(  4 -  4) =     -8.36776  eV     1   --> A'             
     e(  5 -  5) =     -3.98915  eV     1   --> A''            
     e(  6 -  6) =     -0.79061  eV     1   --> A''            
     e(  7 -  7) =      3.31726  eV     1   --> A'             
     e(  8 -  8) =      5.39416  eV     1   --> A'             
     e(  9 -  9) =      5.52383  eV     1   --> A'             

 **************************************************************************

 **************************************************************************

                    xk=(   0.42000,   0.00000,   0.00000  )

     Band symmetry, C_s (m)     point group:

     e(  1 -  1) =    -16.54378  eV     1   --> A'             
     e(  2 -  2) =    -14.02781  eV     1   --> A'             
     e(  3 -  3) =     -9.99955  eV     1   --> A'             
     e(  4 -  4) =     -8.41170  eV     1   --> A'             
     e(  5 -  5) =     -3.90526  eV     1   --> A''            
     e(  6 -  6) =     -0.88757  eV     1   --> A''            
     e(  7 -  7) =      3.38324  eV     1   --> A'             
     e(  8 -  8) =      5.48551  eV     1   --> A'             
     e(  9 -  9) =      5.60412  eV     1   --> A'             

 **************************************************************************

 **************************************************************************

                    xk=(   0.42500,   0.00000,   0.00000  )

     Band symmetry, C_s (m)     point group:

     e(  1 -  1) =    -16.47599  eV     1   --> A'             
     e(  2 -  2) =    -14.11360  eV     1   --> A'             
     e(  3 -  3) =     -9.94993  eV     1   --> A'             
     e(  4 -  4) =     -8.45627  eV     1   --> A'             
     e(  5 -  5) =     -3.82067  eV     1   --> A''            
     e(  6 -  6) =     -0.98462  eV     1   --> A''            
     e(  7 -  7) =      3.45022  eV     1   --> A'             
     e(  8 -  8) =      5.57783  eV     1   --> A'             
     e(  9 -  9) =      5.67716  eV     1   --> A'             

 **************************************************************************

 **************************************************************************

                    xk=(   0.43000,   0.00000,   0.00000  )

     Band symmetry, C_s (m)     point group:

     e(  1 -  1) =    -16.40755  eV     1   --> A'             
     e(  2 -  2) =    -14.19896  eV     1   --> A'             
     e(  3 -  3) =     -9.89998  eV     1   --> A'             
     e(  4 -  4) =     -8.50141  eV     1   --> A'             
     e(  5 -  5) =     -3.73543  eV     1   --> A''            
     e(  6 -  6) =     -1.08173  eV     1   --> A''            
     e(  7 -  7) =      3.51823  eV     1   --> A'             
     e(  8 -  8) =      5.67247  eV     1   --> A'             
     e(  9 -  9) =      5.72423  eV     1   --> A'             

 **************************************************************************

 **************************************************************************

                    xk=(   0.43500,   0.00000,   0.00000  )

     Band symmetry, C_s (m)     point group:

     e(  1 -  1) =    -16.33849  eV     1   --> A'             
     e(  2 -  2) =    -14.28386  eV     1   --> A'             
     e(  3 -  3) =     -9.84976  eV     1   --> A'             
     e(  4 -  4) =     -8.54711  eV     1   --> A'             
     e(  5 -  5) =     -3.64955  eV     1   --> A''            
     e(  6 -  6) =     -1.17881  eV     1   --> A''            
     e(  7 -  7) =      3.58727  eV     1   --> A'             
     e(  8 -  8) =      5.69945  eV     1   --> A'             
     e(  9 -  9) =      5.77235  eV     1   --> A'             

 **************************************************************************

 **************************************************************************

                    xk=(   0.44000,   0.00000,   0.00000  )

     Band symmetry, C_s (m)     point group:

     e(  1 -  1) =    -16.26884  eV     1   --> A'             
     e(  2 -  2) =    -14.36824  eV     1   --> A'             
     e(  3 -  3) =     -9.79933  eV     1   --> A'             
     e(  4 -  4) =     -8.59337  eV     1   --> A'             
     e(  5 -  5) =     -3.56310  eV     1   --> A''            
     e(  6 -  6) =     -1.27578  eV     1   --> A''            
     e(  7 -  7) =      3.65739  eV     1   --> A'             
     e(  8 -  8) =      5.63235  eV     1   --> A'             
     e(  9 -  9) =      5.87161  eV     1   --> A'             

 **************************************************************************

 **************************************************************************

                    xk=(   0.44500,   0.00000,   0.00000  )

     Band symmetry, C_s (m)     point group:

     e(  1 -  1) =    -16.19864  eV     1   --> A'             
     e(  2 -  2) =    -14.45205  eV     1   --> A'             
     e(  3 -  3) =     -9.74869  eV     1   --> A'             
     e(  4 -  4) =     -8.64012  eV     1   --> A'             
     e(  5 -  5) =     -3.47613  eV     1   --> A''            
     e(  6 -  6) =     -1.37256  eV     1   --> A''            
     e(  7 -  7) =      3.72858  eV     1   --> A'             
     e(  8 -  8) =      5.54970  eV     1   --> A'             
     e(  9 -  9) =      5.96387  eV     1   --> A'             

 **************************************************************************

 **************************************************************************

                    xk=(   0.45000,   0.00000,   0.00000  )

     Band symmetry, C_s (m)     point group:

     e(  1 -  1) =    -16.12794  eV     1   --> A'             
     e(  2 -  2) =    -14.53523  eV     1   --> A'             
     e(  3 -  3) =     -9.69788  eV     1   --> A'             
     e(  4 -  4) =     -8.68733  eV     1   --> A'             
     e(  5 -  5) =     -3.38868  eV     1   --> A''            
     e(  6 -  6) =     -1.46906  eV     1   --> A''            
     e(  7 -  7) =      3.80088  eV     1   --> A'             
     e(  8 -  8) =      5.46244  eV     1   --> A'             
     e(  9 -  9) =      6.06816  eV     1   --> A'             

 **************************************************************************

 **************************************************************************

                    xk=(   0.45500,   0.00000,   0.00000  )

     Band symmetry, C_s (m)     point group:

     e(  1 -  1) =    -16.05679  eV     1   --> A'             
     e(  2 -  2) =    -14.61771  eV     1   --> A'             
     e(  3 -  3) =     -9.64700  eV     1   --> A'             
     e(  4 -  4) =     -8.73503  eV     1   --> A'             
     e(  5 -  5) =     -3.30087  eV     1   --> A''            
     e(  6 -  6) =     -1.56514  eV     1   --> A''            
     e(  7 -  7) =      3.87423  eV     1   --> A'             
     e(  8 -  8) =      5.37353  eV     1   --> A'             
     e(  9 -  9) =      6.16506  eV     1   --> A'             

 **************************************************************************

 **************************************************************************

                    xk=(   0.46000,   0.00000,   0.00000  )

     Band symmetry, C_s (m)     point group:

     e(  1 -  1) =    -15.98528  eV     1   --> A'             
     e(  2 -  2) =    -14.69938  eV     1   --> A'             
     e(  3 -  3) =     -9.59605  eV     1   --> A'             
     e(  4 -  4) =     -8.78308  eV     1   --> A'             
     e(  5 -  5) =     -3.21281  eV     1   --> A''            
     e(  6 -  6) =     -1.66066  eV     1   --> A''            
     e(  7 -  7) =      3.94868  eV     1   --> A'             
     e(  8 -  8) =      5.28418  eV     1   --> A'             
     e(  9 -  9) =      6.27276  eV     1   --> A'             

 **************************************************************************

 **************************************************************************

                    xk=(   0.46500,   0.00000,   0.00000  )

     Band symmetry, C_s (m)     point group:

     e(  1 -  1) =    -15.91355  eV     1   --> A'             
     e(  2 -  2) =    -14.78010  eV     1   --> A'             
     e(  3 -  3) =     -9.54509  eV     1   --> A'             
     e(  4 -  4) =     -8.83147  eV     1   --> A'             
     e(  5 -  5) =     -3.12470  eV     1   --> A''            
     e(  6 -  6) =     -1.75542  eV     1   --> A''            
     e(  7 -  7) =      4.02421  eV     1   --> A'             
     e(  8 -  8) =      5.19492  eV     1   --> A'             
     e(  9 -  9) =      6.38129  eV     1   --> A'             

 **************************************************************************

 **************************************************************************

                    xk=(   0.47000,   0.00000,   0.00000  )

     Band symmetry, C_s (m)     point group:

     e(  1 -  1) =    -15.84181  eV     1   --> A'             
     e(  2 -  2) =    -14.85964  eV     1   --> A'             
     e(  3 -  3) =     -9.49419  eV     1   --> A'             
     e(  4 -  4) =     -8.88014  eV     1   --> A'             
     e(  5 -  5) =     -3.03681  eV     1   --> A''            
     e(  6 -  6) =     -1.84910  eV     1   --> A''            
     e(  7 -  7) =      4.10082  eV     1   --> A'             
     e(  8 -  8) =      5.10621  eV     1   --> A'             
     e(  9 -  9) =      6.51342  eV     1   --> A'             

 **************************************************************************

 **************************************************************************

                    xk=(   0.47500,   0.00000,   0.00000  )

     Band symmetry, C_s (m)     point group:

     e(  1 -  1) =    -15.77046  eV     1   --> A'             
     e(  2 -  2) =    -14.93763  eV     1   --> A'             
     e(  3 -  3) =     -9.44343  eV     1   --> A'             
     e(  4 -  4) =     -8.92907  eV     1   --> A'             
     e(  5 -  5) =     -2.94961  eV     1   --> A''            
     e(  6 -  6) =     -1.94123  eV     1   --> A''            
     e(  7 -  7) =      4.17849  eV     1   --> A'             
     e(  8 -  8) =      5.01777  eV     1   --> A'             
     e(  9 -  9) =      6.57265  eV     1   --> A'             

 **************************************************************************

 **************************************************************************

                    xk=(   0.48000,   0.00000,   0.00000  )

     Band symmetry, C_s (m)     point group:

     e(  1 -  1) =    -15.70013  eV     1   --> A'             
     e(  2 -  2) =    -15.01338  eV     1   --> A'             
     e(  3 -  3) =     -9.39299  eV     1   --> A'             
     e(  4 -  4) =     -8.97797  eV     1   --> A'             
     e(  5 -  5) =     -2.86399  eV     1   --> A''            
     e(  6 -  6) =     -2.03091  eV     1   --> A''            
     e(  7 -  7) =      4.25713  eV     1   --> A'             
     e(  8 -  8) =      4.93042  eV     1   --> A'             
     e(  9 -  9) =      6.69754  eV     1   --> A'             

 **************************************************************************

 **************************************************************************

                    xk=(   0.48500,   0.00000,   0.00000  )

     Band symmetry, C_s (m)     point group:

     e(  1 -  1) =    -15.63221  eV     1   --> A'             
     e(  2 -  2) =    -15.08552  eV     1   --> A'             
     e(  3 -  3) =     -9.34315  eV     1   --> A'             
     e(  4 -  4) =     -9.02661  eV     1   --> A'             
     e(  5 -  5) =     -2.78167  eV     1   --> A''            
     e(  6 -  6) =     -2.11640  eV     1   --> A''            
     e(  7 -  7) =      4.33658  eV     1   --> A'             
     e(  8 -  8) =      4.84400  eV     1   --> A'             
     e(  9 -  9) =      6.78597  eV     1   --> A'             

 **************************************************************************

 **************************************************************************

                    xk=(   0.49000,   0.00000,   0.00000  )

     Band symmetry, C_s (m)     point group:

     e(  1 -  1) =    -15.56978  eV     1   --> A'             
     e(  2 -  2) =    -15.15099  eV     1   --> A'             
     e(  3 -  3) =     -9.29474  eV     1   --> A'             
     e(  4 -  4) =     -9.07423  eV     1   --> A'             
     e(  5 -  5) =     -2.70647  eV     1   --> A''            
     e(  6 -  6) =     -2.19386  eV     1   --> A''            
     e(  7 -  7) =      4.41654  eV     1   --> A'             
     e(  8 -  8) =      4.75897  eV     1   --> A'             
     e(  9 -  9) =      6.86765  eV     1   --> A'             

 **************************************************************************

 **************************************************************************

                    xk=(   0.49500,   0.00000,   0.00000  )

     Band symmetry, C_s (m)     point group:

     e(  1 -  1) =    -15.52039  eV     1   --> A'             
     e(  2 -  2) =    -15.20214  eV     1   --> A'             
     e(  3 -  3) =     -9.25053  eV     1   --> A'             
     e(  4 -  4) =     -9.11783  eV     1   --> A'             
     e(  5 -  5) =     -2.64755  eV     1   --> A''            
     e(  6 -  6) =     -2.25412  eV     1   --> A''            
     e(  7 -  7) =      4.49533  eV     1   --> A'             
     e(  8 -  8) =      4.67724  eV     1   --> A'             
     e(  9 -  9) =      6.93405  eV     1   --> A'             

 **************************************************************************

 **************************************************************************

                    xk=(   0.50000,   0.00000,   0.00000  )

     Band symmetry, C_s (m)     point group:

     e(  1 -  1) =    -15.49993  eV     1   --> A'             
     e(  2 -  2) =    -15.22321  eV     1   --> A'             
     e(  3 -  3) =     -9.22673  eV     1   --> A'             
     e(  4 -  4) =     -9.14150  eV     1   --> A'             
     e(  5 -  5) =     -2.62339  eV     1   --> A''            
     e(  6 -  6) =     -2.27874  eV     1   --> A''            
     e(  7 -  7) =      4.55032  eV     1   --> A'             
     e(  8 -  8) =      4.62144  eV     1   --> A'             
     e(  9 -  9) =      6.96366  eV     1   --> A'             

 **************************************************************************

     BANDS        :      7.59s CPU      7.72s WALL


   This run was terminated on:  14:57:36   5Dec2025            

=------------------------------------------------------------------------------=
   JOB DONE.
=------------------------------------------------------------------------------=
