
     Program PWSCF v.6.7MaX starts on  5Dec2025 at 15:22:14 

     This program is part of the open-source Quantum ESPRESSO suite
     for quantum simulation of materials; please cite
         "P. Giannozzi et al., J. Phys.:Condens. Matter 21 395502 (2009);
         "P. Giannozzi et al., J. Phys.:Condens. Matter 29 465901 (2017);
          URL http://www.quantum-espresso.org", 
     in publications or presentations arising from this work. More details at
     http://www.quantum-espresso.org/quote

     Parallel version (MPI), running on     1 processors

     MPI processes distributed on     1 nodes
     Waiting for input...
     Reading input from standard input

     Current dimensions of program PWSCF are:
     Max number of different atomic species (ntypx) = 10
     Max number of k-points (npk) =  40000
     Max angular momentum in pseudopotentials (lmaxx) =  3
     file C.pbe-n-kjpaw_psl.0.1.UPF: wavefunction(s)  2P renormalized

     Subspace diagonalization in iterative solution of the eigenvalue problem:
     a serial algorithm will be used

     Message from routine setup:
     using ibrav=0 with symmetry is DISCOURAGED, use correct ibrav instead

     G-vector sticks info
     --------------------
     sticks:   dense  smooth     PW     G-vecs:    dense   smooth      PW
     Sum         899     899    275                36359    36359    6143



     bravais-lattice index     =            0
     lattice parameter (alat)  =       4.6487  a.u.
     unit-cell volume          =    1062.4578 (a.u.)^3
     number of atoms/cell      =            4
     number of atomic types    =            2
     number of electrons       =        10.00
     number of Kohn-Sham states=            9
     kinetic-energy cutoff     =      40.0000  Ry
     charge density cutoff     =     160.0000  Ry
     scf convergence threshold =      1.0E-07
     mixing beta               =       0.7000
     number of iterations used =            8  plain     mixing
     energy convergence thresh.=      1.0E-04
     force convergence thresh. =      1.0E-03
     Exchange-correlation= SLA  PW   PBX  PBC
                           (   1   4   3   4   0   0   0)
     nstep                     =           50


     celldm(1)=   4.648726  celldm(2)=   0.000000  celldm(3)=   0.000000
     celldm(4)=   0.000000  celldm(5)=   0.000000  celldm(6)=   0.000000

     crystal axes: (cart. coord. in units of alat)
               a(1) = (   1.000000   0.000000   0.000000 )  
               a(2) = (   0.000000   3.252033   0.000000 )  
               a(3) = (   0.000000   0.000000   3.252033 )  

     reciprocal axes: (cart. coord. in units 2 pi/alat)
               b(1) = (  1.000000  0.000000  0.000000 )  
               b(2) = (  0.000000  0.307500  0.000000 )  
               b(3) = (  0.000000  0.000000  0.307500 )  


     PseudoPot. # 1 for C  read from file:
     /usr/share/espresso/pseudo/C.pbe-n-kjpaw_psl.0.1.UPF
     MD5 check sum: 0cb641972fb3ec3bdffe56284d45d2bb
     Pseudo is Projector augmented-wave + core cor, Zval =  4.0
     Generated using &quot;atomic&quot; code by A. Dal Corso  v.5.0.2 svn rev. 9415
     Shape of augmentation charge: BESSEL
     Using radial grid of 1073 points,  4 beta functions with: 
                l(1) =   0
                l(2) =   0
                l(3) =   1
                l(4) =   1
     Q(r) pseudized with 0 coefficients 


     PseudoPot. # 2 for H  read from file:
     /usr/share/espresso/pseudo/H.pbe-kjpaw.UPF
     MD5 check sum: a225a3f3a1be5237eb8f6a7e61cbb4ee
     Pseudo is Projector augmented-wave, Zval =  1.0
     Generated using "atomic" code by A. Dal Corso (espresso distribution)
     Shape of augmentation charge: PSQ
     Using radial grid of  929 points,  2 beta functions with: 
                l(1) =   0
                l(2) =   0
     Q(r) pseudized with 0 coefficients 


     atomic species   valence    mass     pseudopotential
        C              4.00    12.01100     C ( 1.00)
        H              1.00     1.00790     H ( 1.00)

      2 Sym. Ops. (no inversion) found



   Cartesian axes

     site n.     atom                  positions (alat units)
         1           C   tau(   1) = (   0.0000000   2.0325203   0.0000000  )
         2           C   tau(   2) = (   0.4186992   2.3008130   0.0000000  )
         3           H   tau(   3) = (   0.0000000   1.6016260   0.0000000  )
         4           H   tau(   4) = (   0.4186992   2.7317073   0.0000000  )

     number of k points=    21  Gaussian smearing, width (Ry)=  0.0100
                       cart. coord. in units 2pi/alat
        k(    1) = (   0.0000000   0.0000000   0.0000000), wk =   0.0952381
        k(    2) = (   0.0250000   0.0000000   0.0000000), wk =   0.0952381
        k(    3) = (   0.0500000   0.0000000   0.0000000), wk =   0.0952381
        k(    4) = (   0.0750000   0.0000000   0.0000000), wk =   0.0952381
        k(    5) = (   0.1000000   0.0000000   0.0000000), wk =   0.0952381
        k(    6) = (   0.1250000   0.0000000   0.0000000), wk =   0.0952381
        k(    7) = (   0.1500000   0.0000000   0.0000000), wk =   0.0952381
        k(    8) = (   0.1750000   0.0000000   0.0000000), wk =   0.0952381
        k(    9) = (   0.2000000   0.0000000   0.0000000), wk =   0.0952381
        k(   10) = (   0.2250000   0.0000000   0.0000000), wk =   0.0952381
        k(   11) = (   0.2500000   0.0000000   0.0000000), wk =   0.0952381
        k(   12) = (   0.2750000   0.0000000   0.0000000), wk =   0.0952381
        k(   13) = (   0.3000000   0.0000000   0.0000000), wk =   0.0952381
        k(   14) = (   0.3250000   0.0000000   0.0000000), wk =   0.0952381
        k(   15) = (   0.3500000   0.0000000   0.0000000), wk =   0.0952381
        k(   16) = (   0.3750000   0.0000000   0.0000000), wk =   0.0952381
        k(   17) = (   0.4000000   0.0000000   0.0000000), wk =   0.0952381
        k(   18) = (   0.4250000   0.0000000   0.0000000), wk =   0.0952381
        k(   19) = (   0.4500000   0.0000000   0.0000000), wk =   0.0952381
        k(   20) = (   0.4750000   0.0000000   0.0000000), wk =   0.0952381
        k(   21) = (   0.5000000   0.0000000   0.0000000), wk =   0.0952381

     Dense  grid:    36359 G-vectors     FFT dimensions: (  20,  64,  64)

     Estimated max dynamical RAM per process >      63.89 MB

     Check: negative core charge=   -0.000012

     Initial potential from superposition of free atoms

     starting charge    9.99990, renormalised to   10.00000

     negative rho (up, down):  3.027E-05 0.000E+00
     Starting wfcs are   10 randomized atomic wfcs
     Checking if some PAW data can be deallocated... 

     total cpu time spent up to now is        1.8 secs

     Self-consistent Calculation

     iteration #  1     ecut=    40.00 Ry     beta= 0.70
     Davidson diagonalization with overlap
     ethr =  1.00E-02,  avg # of iterations =  7.6

     negative rho (up, down):  6.939E-06 0.000E+00

     total cpu time spent up to now is        5.8 secs

     total energy              =     -39.04145002 Ry
     estimated scf accuracy    <       0.34104026 Ry

     iteration #  2     ecut=    40.00 Ry     beta= 0.70
     Davidson diagonalization with overlap
     ethr =  3.41E-03,  avg # of iterations =  3.2

     negative rho (up, down):  2.990E-05 0.000E+00

     total cpu time spent up to now is        7.6 secs

     total energy              =     -39.12449349 Ry
     estimated scf accuracy    <       0.01838442 Ry

     iteration #  3     ecut=    40.00 Ry     beta= 0.70
     Davidson diagonalization with overlap
     ethr =  1.84E-04,  avg # of iterations = 13.8

     negative rho (up, down):  2.259E-04 0.000E+00

     total cpu time spent up to now is       11.9 secs

     total energy              =     -39.15027170 Ry
     estimated scf accuracy    <       0.00373303 Ry

     iteration #  4     ecut=    40.00 Ry     beta= 0.70
     Davidson diagonalization with overlap
     ethr =  3.73E-05,  avg # of iterations =  4.5

     negative rho (up, down):  1.781E-04 0.000E+00

     total cpu time spent up to now is       15.0 secs

     total energy              =     -39.15161192 Ry
     estimated scf accuracy    <       0.00091105 Ry

     iteration #  5     ecut=    40.00 Ry     beta= 0.70
     Davidson diagonalization with overlap
     c_bands:  1 eigenvalues not converged
     ethr =  9.11E-06,  avg # of iterations =  8.4

     negative rho (up, down):  1.740E-04 0.000E+00

     total cpu time spent up to now is       19.1 secs

     total energy              =     -39.15193848 Ry
     estimated scf accuracy    <       0.00002752 Ry

     iteration #  6     ecut=    40.00 Ry     beta= 0.70
     Davidson diagonalization with overlap
     ethr =  2.75E-07,  avg # of iterations =  8.1

     negative rho (up, down):  1.832E-04 0.000E+00

     total cpu time spent up to now is       22.3 secs

     total energy              =     -39.15200691 Ry
     estimated scf accuracy    <       0.00002227 Ry

     iteration #  7     ecut=    40.00 Ry     beta= 0.70
     Davidson diagonalization with overlap
     ethr =  2.23E-07,  avg # of iterations =  1.8

     negative rho (up, down):  1.900E-04 0.000E+00

     total cpu time spent up to now is       23.8 secs

     total energy              =     -39.15200704 Ry
     estimated scf accuracy    <       0.00000495 Ry

     iteration #  8     ecut=    40.00 Ry     beta= 0.70
     Davidson diagonalization with overlap
     ethr =  4.95E-08,  avg # of iterations =  4.1

     negative rho (up, down):  1.899E-04 0.000E+00

     total cpu time spent up to now is       25.6 secs

     total energy              =     -39.15201011 Ry
     estimated scf accuracy    <       0.00000092 Ry

     iteration #  9     ecut=    40.00 Ry     beta= 0.70
     Davidson diagonalization with overlap
     ethr =  9.16E-09,  avg # of iterations =  3.4

     negative rho (up, down):  1.897E-04 0.000E+00

     total cpu time spent up to now is       27.4 secs

     total energy              =     -39.15201011 Ry
     estimated scf accuracy    <       0.00000060 Ry

     iteration # 10     ecut=    40.00 Ry     beta= 0.70
     Davidson diagonalization with overlap
     ethr =  6.00E-09,  avg # of iterations =  2.0

     negative rho (up, down):  1.895E-04 0.000E+00

     total cpu time spent up to now is       29.5 secs

     End of self-consistent calculation

          k = 0.0000 0.0000 0.0000 (  4517 PWs)   bands (ev):

   -19.5180 -12.8676  -8.4231  -7.6281  -5.5919   0.3152   1.7623   1.8992
     1.9067

          k = 0.0250 0.0000 0.0000 (  4529 PWs)   bands (ev):

   -19.5080 -12.8585  -8.4354  -7.6151  -5.6320   0.3275   1.7762   1.9075
     1.9204

          k = 0.0500 0.0000 0.0000 (  4545 PWs)   bands (ev):

   -19.4781 -12.8311  -8.4735  -7.5761  -5.7473   0.3645   1.8173   1.9313
     1.9621

          k = 0.0750 0.0000 0.0000 (  4545 PWs)   bands (ev):

   -19.4283 -12.7858  -8.5413  -7.5112  -5.9237   0.4265   1.8852   1.9683
     2.0321

          k = 0.1000 0.0000 0.0000 (  4521 PWs)   bands (ev):

   -19.3587 -12.7229  -8.6449  -7.4206  -6.1412   0.5138   1.9793   2.0164
     2.1312

          k = 0.1250 0.0000 0.0000 (  4521 PWs)   bands (ev):

   -19.2697 -12.6435  -8.7921  -7.3046  -6.3776   0.6263   2.0706   2.0982
     2.2559

          k = 0.1500 0.0000 0.0000 (  4529 PWs)   bands (ev):

   -19.1614 -12.5487  -8.9894  -7.1635  -6.6123   0.7633   2.1215   2.2423
     2.4103

          k = 0.1750 0.0000 0.0000 (  4521 PWs)   bands (ev):

   -19.0342 -12.4404  -9.2389  -6.9979  -6.8308   0.9239   2.1594   2.4105
     2.5923

          k = 0.2000 0.0000 0.0000 (  4529 PWs)   bands (ev):

   -18.8887 -12.3218  -9.5351  -7.0273  -6.8083   1.1070   2.1692   2.6026
     2.8019

          k = 0.2250 0.0000 0.0000 (  4533 PWs)   bands (ev):

   -18.7254 -12.1988  -9.8641  -7.2039  -6.5958   1.3108   2.1337   2.8189
     3.0394

          k = 0.2500 0.0000 0.0000 (  4533 PWs)   bands (ev):

   -18.5453 -12.0828 -10.2032  -7.3673  -6.3614   1.5337   2.0365   3.0597
     3.3033

          k = 0.2750 0.0000 0.0000 (  4545 PWs)   bands (ev):

   -18.3494 -11.9991 -10.5161  -7.5255  -6.1065   1.7739   1.8674   3.3249
     3.5938

          k = 0.3000 0.0000 0.0000 (  4545 PWs)   bands (ev):

   -18.1395 -11.9989 -10.7413  -7.6850  -5.8334   1.6274   2.0298   3.6160
     3.9102

          k = 0.3250 0.0000 0.0000 (  4526 PWs)   bands (ev):

   -17.9178 -12.1388 -10.8144  -7.8507  -5.5449   1.3277   2.3005   3.9345
     4.2526

          k = 0.3500 0.0000 0.0000 (  4554 PWs)   bands (ev):

   -17.6877 -12.4006 -10.7467  -8.0258  -5.2451   0.9858   2.5855   4.2810
     4.6193

          k = 0.3750 0.0000 0.0000 (  4550 PWs)   bands (ev):

   -17.4539 -12.7167 -10.5990  -8.2109  -4.9401   0.6219   2.8853   4.6552
     5.0098

          k = 0.4000 0.0000 0.0000 (  4550 PWs)   bands (ev):

   -17.2242 -13.0384 -10.4131  -8.4046  -4.6394   0.2577   3.2005   5.0537
     5.4231

          k = 0.4250 0.0000 0.0000 (  4538 PWs)   bands (ev):

   -17.0100 -13.3344 -10.2117  -8.6026  -4.3578  -0.0824   3.5310   5.4496
     5.8566

          k = 0.4500 0.0000 0.0000 (  4534 PWs)   bands (ev):

   -16.8289 -13.5784 -10.0135  -8.7949  -4.1177  -0.3689   3.8725   5.5610
     6.1160

          k = 0.4750 0.0000 0.0000 (  4546 PWs)   bands (ev):

   -16.7041 -13.7424  -9.8476  -8.9562  -3.9508  -0.5654   4.2026   5.2529
     6.5273

          k = 0.5000 0.0000 0.0000 (  4546 PWs)   bands (ev):

   -16.6590 -13.8008  -9.7751  -9.0271  -3.8901  -0.6363   4.3898   5.0566
     6.9276

     the Fermi energy is    -2.9215 ev

!    total energy              =     -39.15201020 Ry

     total all-electron energy =      -154.680213 Ry
     estimated scf accuracy    <       0.00000003 Ry
     smearing contrib. (-TS)   =      -0.00000000 Ry
     internal energy E=F+TS    =     -39.15201020 Ry

     The total energy is F=E-TS. E is the sum of the following terms:
     one-electron contribution =     -69.36203042 Ry
     hartree contribution      =      36.45769280 Ry
     xc contribution           =      -9.76553137 Ry
     ewald contribution        =      16.83695552 Ry
     one-center paw contrib.   =     -13.31909673 Ry

     convergence has been achieved in  10 iterations

     negative rho (up, down):  1.895E-04 0.000E+00

     Forces acting on atoms (cartesian axes, Ry/au):

     atom    1 type  1   force =    -0.36810213   -0.08355820    0.00000000
     atom    2 type  1   force =     0.36812351    0.08340618    0.00000000
     atom    3 type  2   force =    -0.00377993   -0.05007780    0.00000000
     atom    4 type  2   force =     0.00375856    0.05022982    0.00000000

     Total force =     0.538528     Total SCF correction =     0.000179

     BFGS Geometry Optimization
     Energy error            =      0.0E+00
     Gradient error          =      3.7E-01

     number of scf cycles    =   1
     number of bfgs steps    =   0

     energy   new            =     -39.1520101965 Ry

     new trust radius        =       0.3774667543 bohr
     new conv_thr            =       0.0000001000 Ry


ATOMIC_POSITIONS (angstrom)
C            -0.1947912582        4.9557829044        0.0000000000
C             1.2248025706        5.7041366486        0.0000000000
H            -0.0020002551        3.9134999695        0.0000000000
H             1.0319889427        6.7465804775        0.0000000000



     Writing output data file ./polyene.save/
     NEW-OLD atomic charge density approx. for the potential

     Check: negative core charge=   -0.000012

     negative rho (up, down):  2.495E-04 0.000E+00

     total cpu time spent up to now is       30.7 secs

     Self-consistent Calculation

     iteration #  1     ecut=    40.00 Ry     beta= 0.70
     Davidson diagonalization with overlap
     c_bands:  1 eigenvalues not converged
     c_bands:  1 eigenvalues not converged
     c_bands:  1 eigenvalues not converged
     c_bands:  4 eigenvalues not converged
     ethr =  1.00E-06,  avg # of iterations = 36.5

     negative rho (up, down):  1.661E-04 0.000E+00

     total cpu time spent up to now is       47.3 secs

     total energy              =     -39.13288790 Ry
     estimated scf accuracy    <       0.11516348 Ry

     iteration #  2     ecut=    40.00 Ry     beta= 0.70
     Davidson diagonalization with overlap
     ethr =  1.15E-03,  avg # of iterations =  2.0

     negative rho (up, down):  1.420E-04 0.000E+00

     total cpu time spent up to now is       48.8 secs

     total energy              =     -39.14436538 Ry
     estimated scf accuracy    <       0.00281673 Ry

     iteration #  3     ecut=    40.00 Ry     beta= 0.70
     Davidson diagonalization with overlap
     ethr =  2.82E-05,  avg # of iterations =  5.9

     negative rho (up, down):  1.536E-04 0.000E+00

     total cpu time spent up to now is       51.4 secs

     total energy              =     -39.15102631 Ry
     estimated scf accuracy    <       0.00201362 Ry

     iteration #  4     ecut=    40.00 Ry     beta= 0.70
     Davidson diagonalization with overlap
     ethr =  2.01E-05,  avg # of iterations =  1.6

     negative rho (up, down):  1.672E-04 0.000E+00

     total cpu time spent up to now is       52.9 secs

     total energy              =     -39.15090603 Ry
     estimated scf accuracy    <       0.00038658 Ry

     iteration #  5     ecut=    40.00 Ry     beta= 0.70
     Davidson diagonalization with overlap
     c_bands:  1 eigenvalues not converged
     ethr =  3.87E-06,  avg # of iterations =  5.2

     negative rho (up, down):  1.636E-04 0.000E+00

     total cpu time spent up to now is       55.0 secs

     total energy              =     -39.15107082 Ry
     estimated scf accuracy    <       0.00028627 Ry

     iteration #  6     ecut=    40.00 Ry     beta= 0.70
     Davidson diagonalization with overlap
     ethr =  2.86E-06,  avg # of iterations =  2.0

     negative rho (up, down):  1.652E-04 0.000E+00

     total cpu time spent up to now is       57.5 secs

     total energy              =     -39.15109791 Ry
     estimated scf accuracy    <       0.00000759 Ry

     iteration #  7     ecut=    40.00 Ry     beta= 0.70
     Davidson diagonalization with overlap
     ethr =  7.59E-08,  avg # of iterations =  7.3

     negative rho (up, down):  1.655E-04 0.000E+00

     total cpu time spent up to now is       61.2 secs

     total energy              =     -39.15112092 Ry
     estimated scf accuracy    <       0.00001089 Ry

     iteration #  8     ecut=    40.00 Ry     beta= 0.70
     Davidson diagonalization with overlap
     ethr =  7.59E-08,  avg # of iterations =  1.7

     negative rho (up, down):  1.655E-04 0.000E+00

     total cpu time spent up to now is       62.7 secs

     total energy              =     -39.15112022 Ry
     estimated scf accuracy    <       0.00000217 Ry

     iteration #  9     ecut=    40.00 Ry     beta= 0.70
     Davidson diagonalization with overlap
     ethr =  2.17E-08,  avg # of iterations =  3.7

     negative rho (up, down):  1.659E-04 0.000E+00

     total cpu time spent up to now is       64.5 secs

     total energy              =     -39.15112136 Ry
     estimated scf accuracy    <       0.00000011 Ry

     iteration # 10     ecut=    40.00 Ry     beta= 0.70
     Davidson diagonalization with overlap
     ethr =  1.08E-09,  avg # of iterations =  5.7

     negative rho (up, down):  1.659E-04 0.000E+00

     total cpu time spent up to now is       66.9 secs

     total energy              =     -39.15112157 Ry
     estimated scf accuracy    <       0.00000021 Ry

     iteration # 11     ecut=    40.00 Ry     beta= 0.70
     Davidson diagonalization with overlap
     ethr =  1.08E-09,  avg # of iterations =  1.1

     negative rho (up, down):  1.661E-04 0.000E+00

     total cpu time spent up to now is       68.3 secs

     total energy              =     -39.15112147 Ry
     estimated scf accuracy    <       0.00000015 Ry

     iteration # 12     ecut=    40.00 Ry     beta= 0.70
     Davidson diagonalization with overlap
     ethr =  1.08E-09,  avg # of iterations =  2.0

     negative rho (up, down):  1.661E-04 0.000E+00

     total cpu time spent up to now is       70.1 secs

     End of self-consistent calculation

          k = 0.0000 0.0000 0.0000 (  4517 PWs)   bands (ev):

   -19.1675 -12.9187  -8.8424  -7.3040  -4.7174   0.3053   1.4988   1.8468
     1.8686

          k = 0.0250 0.0000 0.0000 (  4529 PWs)   bands (ev):

   -19.1569 -12.9097  -8.8501  -7.2911  -4.7672   0.3166   1.5060   1.8486
     1.8925

          k = 0.0500 0.0000 0.0000 (  4545 PWs)   bands (ev):

   -19.1254 -12.8825  -8.8742  -7.2523  -4.9109   0.3510   1.5268   1.8707
     1.9479

          k = 0.0750 0.0000 0.0000 (  4545 PWs)   bands (ev):

   -19.0728 -12.8376  -8.9169  -7.1878  -5.1335   0.4092   1.5597   1.9202
     2.0290

          k = 0.1000 0.0000 0.0000 (  4521 PWs)   bands (ev):

   -18.9993 -12.7754  -8.9823  -7.0977  -5.4142   0.4920   1.6014   1.9977
     2.1349

          k = 0.1250 0.0000 0.0000 (  4521 PWs)   bands (ev):

   -18.9051 -12.6970  -9.0763  -6.9823  -5.7299   0.5994   1.6476   2.1029
     2.2664

          k = 0.1500 0.0000 0.0000 (  4529 PWs)   bands (ev):

   -18.7903 -12.6035  -9.2054  -6.8420  -6.0580   0.7305   1.6914   2.2351
     2.4238

          k = 0.1750 0.0000 0.0000 (  4521 PWs)   bands (ev):

   -18.6551 -12.4970  -9.3755  -6.6772  -6.3790   0.8842   1.7238   2.3930
     2.6072

          k = 0.2000 0.0000 0.0000 (  4529 PWs)   bands (ev):

   -18.4999 -12.3809  -9.5896  -6.6783  -6.4886   1.0583   1.7332   2.5758
     2.8166

          k = 0.2250 0.0000 0.0000 (  4533 PWs)   bands (ev):

   -18.3251 -12.2608  -9.8435  -6.9483  -6.2769   1.2505   1.7064   2.7829
     3.0521

          k = 0.2500 0.0000 0.0000 (  4533 PWs)   bands (ev):

   -18.1312 -12.1474 -10.1228  -7.1889  -6.0432   1.4579   1.6305   3.0141
     3.3132

          k = 0.2750 0.0000 0.0000 (  4545 PWs)   bands (ev):

   -17.9190 -12.0624 -10.3977  -7.4057  -5.7890   1.4960   1.6778   3.2703
     3.5992

          k = 0.3000 0.0000 0.0000 (  4545 PWs)   bands (ev):

   -17.6894 -12.0472 -10.6168  -7.6068  -5.5159   1.3004   1.9080   3.5533
     3.9094

          k = 0.3250 0.0000 0.0000 (  4526 PWs)   bands (ev):

   -17.4438 -12.1536 -10.7183  -7.8001  -5.2268   1.0488   2.1476   3.8656
     4.2424

          k = 0.3500 0.0000 0.0000 (  4554 PWs)   bands (ev):

   -17.1846 -12.3881 -10.6878  -7.9919  -4.9252   0.7524   2.3973   4.2094
     4.5958

          k = 0.3750 0.0000 0.0000 (  4550 PWs)   bands (ev):

   -16.9150 -12.7008 -10.5674  -8.1857  -4.6166   0.4271   2.6593   4.5855
     4.9648

          k = 0.4000 0.0000 0.0000 (  4550 PWs)   bands (ev):

   -16.6408 -13.0423 -10.4002  -8.3820  -4.3099   0.0918   2.9364   4.9895
     5.3344

          k = 0.4250 0.0000 0.0000 (  4538 PWs)   bands (ev):

   -16.3720 -13.3778 -10.2135  -8.5777  -4.0188  -0.2306   3.2306   5.3573
     5.6285

          k = 0.4500 0.0000 0.0000 (  4534 PWs)   bands (ev):

   -16.1280 -13.6755 -10.0293  -8.7628  -3.7663  -0.5103   3.5391   5.2210
     5.9914

          k = 0.4750 0.0000 0.0000 (  4546 PWs)   bands (ev):

   -15.9445 -13.8932  -9.8783  -8.9127  -3.5869  -0.7079   3.8406   4.8786
     6.4851

          k = 0.5000 0.0000 0.0000 (  4546 PWs)   bands (ev):

   -15.8734 -13.9761  -9.8147  -8.9757  -3.5206  -0.7806   4.0103   4.6883
     7.0166

     the Fermi energy is    -2.7344 ev

!    total energy              =     -39.15112150 Ry

     total all-electron energy =      -154.679325 Ry
     estimated scf accuracy    <          4.3E-10 Ry
     smearing contrib. (-TS)   =      -0.00000000 Ry
     internal energy E=F+TS    =     -39.15112150 Ry

     The total energy is F=E-TS. E is the sum of the following terms:
     one-electron contribution =     -67.51105379 Ry
     hartree contribution      =      35.53708161 Ry
     xc contribution           =      -9.66250097 Ry
     ewald contribution        =      15.79973151 Ry
     one-center paw contrib.   =     -13.31437987 Ry

     convergence has been achieved in  12 iterations

     negative rho (up, down):  1.661E-04 0.000E+00

     Forces acting on atoms (cartesian axes, Ry/au):

     atom    1 type  1   force =     0.24598817    0.08779408    0.00000000
     atom    2 type  1   force =    -0.24600879   -0.08739204    0.00000000
     atom    3 type  2   force =    -0.03139203   -0.04866339    0.00000000
     atom    4 type  2   force =     0.03141265    0.04826135    0.00000000

     Total force =     0.378213     Total SCF correction =     0.000032
     Energy error            =      8.9E-04
     Gradient error          =      2.5E-01

     number of scf cycles    =   2
     number of bfgs steps    =   1

     energy   old            =     -39.1520101965 Ry
     energy   new            =     -39.1511215001 Ry

     CASE: energy  _new > energy  _old

     new trust radius        =       0.1881567999 bohr
     new conv_thr            =       0.0000001000 Ry


ATOMIC_POSITIONS (angstrom)
C            -0.0970980871        4.9779589934        0.0000000000
C             1.1271037260        5.6820009059        0.0000000000
H            -0.0009970722        3.9267904633        0.0000000000
H             1.0309914333        6.7332496373        0.0000000000



     Writing output data file ./polyene.save/
     NEW-OLD atomic charge density approx. for the potential

     Check: negative core charge=   -0.000012

     negative rho (up, down):  2.047E-04 0.000E+00

     total cpu time spent up to now is       71.4 secs

     Self-consistent Calculation

     iteration #  1     ecut=    40.00 Ry     beta= 0.70
     Davidson diagonalization with overlap
     c_bands:  2 eigenvalues not converged
     c_bands:  5 eigenvalues not converged
     c_bands:  5 eigenvalues not converged
     c_bands:  5 eigenvalues not converged
     c_bands:  5 eigenvalues not converged
     c_bands:  5 eigenvalues not converged
     c_bands:  1 eigenvalues not converged
     c_bands:  5 eigenvalues not converged
     ethr =  1.00E-06,  avg # of iterations = 25.8

     negative rho (up, down):  1.814E-04 0.000E+00

     total cpu time spent up to now is       82.7 secs

     total energy              =     -39.19289181 Ry
     estimated scf accuracy    <       0.02982826 Ry

     iteration #  2     ecut=    40.00 Ry     beta= 0.70
     Davidson diagonalization with overlap
     ethr =  2.98E-04,  avg # of iterations =  2.0

     negative rho (up, down):  1.773E-04 0.000E+00

     total cpu time spent up to now is       85.7 secs

     total energy              =     -39.19695180 Ry
     estimated scf accuracy    <       0.00016391 Ry

     iteration #  3     ecut=    40.00 Ry     beta= 0.70
     Davidson diagonalization with overlap
     ethr =  1.64E-06,  avg # of iterations =  9.4

     negative rho (up, down):  1.796E-04 0.000E+00

     total cpu time spent up to now is       89.9 secs

     total energy              =     -39.19798301 Ry
     estimated scf accuracy    <       0.00026753 Ry

     iteration #  4     ecut=    40.00 Ry     beta= 0.70
     Davidson diagonalization with overlap
     ethr =  1.64E-06,  avg # of iterations =  2.4

     negative rho (up, down):  1.800E-04 0.000E+00

     total cpu time spent up to now is       91.7 secs

     total energy              =     -39.19803416 Ry
     estimated scf accuracy    <       0.00000952 Ry

     iteration #  5     ecut=    40.00 Ry     beta= 0.70
     Davidson diagonalization with overlap
     ethr =  9.52E-08,  avg # of iterations =  4.2

     negative rho (up, down):  1.803E-04 0.000E+00

     total cpu time spent up to now is       94.0 secs

     total energy              =     -39.19804031 Ry
     estimated scf accuracy    <       0.00000496 Ry

     iteration #  6     ecut=    40.00 Ry     beta= 0.70
     Davidson diagonalization with overlap
     ethr =  4.96E-08,  avg # of iterations =  1.6

     negative rho (up, down):  1.806E-04 0.000E+00

     total cpu time spent up to now is       95.6 secs

     total energy              =     -39.19804131 Ry
     estimated scf accuracy    <       0.00000040 Ry

     iteration #  7     ecut=    40.00 Ry     beta= 0.70
     Davidson diagonalization with overlap
     ethr =  3.96E-09,  avg # of iterations =  4.2

     negative rho (up, down):  1.808E-04 0.000E+00

     total cpu time spent up to now is       99.1 secs

     End of self-consistent calculation

          k = 0.0000 0.0000 0.0000 (  4517 PWs)   bands (ev):

   -19.2945 -12.9632  -7.6111  -7.4164  -6.6434   0.3014   1.5936   1.8752
     1.8782

          k = 0.0250 0.0000 0.0000 (  4529 PWs)   bands (ev):

   -19.2837 -12.9541  -7.6151  -7.4029  -6.6877   0.3147   1.6003   1.8882
     1.8936

          k = 0.0500 0.0000 0.0000 (  4545 PWs)   bands (ev):

   -19.2515 -12.9267  -7.6293  -7.3622  -6.8151   0.3544   1.6196   1.9278
     1.9389

          k = 0.0750 0.0000 0.0000 (  4545 PWs)   bands (ev):

   -19.1977 -12.8814  -7.6644  -7.2945  -7.0073   0.4204   1.6497   1.9940
     2.0136

          k = 0.1000 0.0000 0.0000 (  4521 PWs)   bands (ev):

   -19.1225 -12.8186  -7.7528  -7.2207  -7.1998   0.5122   1.6869   2.0862
     2.1170

          k = 0.1250 0.0000 0.0000 (  4521 PWs)   bands (ev):

   -19.0259 -12.7395  -7.9580  -7.3796  -7.0783   0.6290   1.7254   2.2039
     2.2485

          k = 0.1500 0.0000 0.0000 (  4529 PWs)   bands (ev):

   -18.9080 -12.6453  -8.2885  -7.4633  -6.9301   0.7699   1.7567   2.3465
     2.4077

          k = 0.1750 0.0000 0.0000 (  4521 PWs)   bands (ev):

   -18.7689 -12.5382  -8.6895  -7.5153  -6.7555   0.9337   1.7704   2.5133
     2.5942

          k = 0.2000 0.0000 0.0000 (  4529 PWs)   bands (ev):

   -18.6087 -12.4220  -9.1234  -7.5626  -6.5547   1.1186   1.7523   2.7033
     2.8076

          k = 0.2250 0.0000 0.0000 (  4533 PWs)   bands (ev):

   -18.4275 -12.3031  -9.5671  -7.6165  -6.3281   1.3225   1.6867   2.9157
     3.0479

          k = 0.2500 0.0000 0.0000 (  4533 PWs)   bands (ev):

   -18.2256 -12.1946  -9.9980  -7.6830  -6.0761   1.5432   1.5597   3.1501
     3.3146

          k = 0.2750 0.0000 0.0000 (  4545 PWs)   bands (ev):

   -18.0031 -12.1241 -10.3825  -7.7659  -5.7992   1.3629   1.7779   3.4066
     3.6074

          k = 0.3000 0.0000 0.0000 (  4545 PWs)   bands (ev):

   -17.7603 -12.1460 -10.6620  -7.8675  -5.4979   1.0962   2.0243   3.6864
     3.9258

          k = 0.3250 0.0000 0.0000 (  4526 PWs)   bands (ev):

   -17.4975 -12.3196 -10.7746  -7.9891  -5.1730   0.7671   2.2809   3.9917
     4.2691

          k = 0.3500 0.0000 0.0000 (  4554 PWs)   bands (ev):

   -17.2151 -12.6323 -10.7319  -8.1309  -4.8253   0.3871   2.5476   4.3247
     4.6365

          k = 0.3750 0.0000 0.0000 (  4550 PWs)   bands (ev):

   -16.9135 -13.0200 -10.5973  -8.2915  -4.4558  -0.0308   2.8255   4.6862
     5.0264

          k = 0.4000 0.0000 0.0000 (  4550 PWs)   bands (ev):

   -16.5936 -13.4373 -10.4175  -8.4679  -4.0658  -0.4746   3.1166   5.0702
     5.4361

          k = 0.4250 0.0000 0.0000 (  4538 PWs)   bands (ev):

   -16.2565 -13.8617 -10.2183  -8.6546  -3.6568  -0.9340   3.4215   5.4286
     5.8557

          k = 0.4500 0.0000 0.0000 (  4534 PWs)   bands (ev):

   -15.9046 -14.2806 -10.0193  -8.8410  -3.2307  -1.4005   3.7355   5.4470
     6.1722

          k = 0.4750 0.0000 0.0000 (  4546 PWs)   bands (ev):

   -15.5473 -14.6797  -9.8504  -9.0014  -2.7908  -1.8665   4.0317   5.1567
     6.5970

          k = 0.5000 0.0000 0.0000 (  4546 PWs)   bands (ev):

   -15.2940 -14.9471  -9.7753  -9.0735  -2.3902  -2.2761   4.1873   4.9890
     6.9837

     the Fermi energy is    -2.3331 ev

!    total energy              =     -39.19804162 Ry

     total all-electron energy =      -154.726245 Ry
     estimated scf accuracy    <       0.00000004 Ry
     smearing contrib. (-TS)   =      -0.00045064 Ry
     internal energy E=F+TS    =     -39.19759098 Ry

     The total energy is F=E-TS. E is the sum of the following terms:
     one-electron contribution =     -67.99203497 Ry
     hartree contribution      =      35.74192829 Ry
     xc contribution           =      -9.66132309 Ry
     ewald contribution        =      16.02373630 Ry
     one-center paw contrib.   =     -13.30989752 Ry

     convergence has been achieved in   7 iterations

     negative rho (up, down):  1.808E-04 0.000E+00

     Forces acting on atoms (cartesian axes, Ry/au):

     atom    1 type  1   force =     0.02394226    0.12525743    0.00000000
     atom    2 type  1   force =    -0.02408099   -0.12513904    0.00000000
     atom    3 type  2   force =    -0.01797360   -0.05473935    0.00000000
     atom    4 type  2   force =     0.01811233    0.05462095    0.00000000

     Total force =     0.197821     Total SCF correction =     0.000287
     Energy error            =      4.6E-02
     Gradient error          =      1.3E-01

     number of scf cycles    =   3
     number of bfgs steps    =   1

     energy   old            =     -39.1520101965 Ry
     energy   new            =     -39.1980416204 Ry

     CASE: energy  _new < energy  _old

     new trust radius        =       0.1054582933 bohr
     new conv_thr            =       0.0000001000 Ry


ATOMIC_POSITIONS (angstrom)
C            -0.1148560037        5.0308643811        0.0000000000
C             1.1447974132        5.6291397434        0.0000000000
H            -0.0098368053        3.8968162732        0.0000000000
H             1.0398953958        6.7631796024        0.0000000000



     Writing output data file ./polyene.save/
     NEW-OLD atomic charge density approx. for the potential

     Check: negative core charge=   -0.000012

     negative rho (up, down):  1.889E-04 0.000E+00

     total cpu time spent up to now is      100.2 secs

     Self-consistent Calculation

     iteration #  1     ecut=    40.00 Ry     beta= 0.70
     Davidson diagonalization with overlap
     c_bands:  2 eigenvalues not converged
     c_bands:  4 eigenvalues not converged
     c_bands:  4 eigenvalues not converged
     c_bands:  4 eigenvalues not converged
     c_bands:  4 eigenvalues not converged
     c_bands:  1 eigenvalues not converged
     c_bands:  5 eigenvalues not converged
     c_bands:  5 eigenvalues not converged
     c_bands:  4 eigenvalues not converged
     c_bands:  4 eigenvalues not converged
     c_bands:  4 eigenvalues not converged
     c_bands:  4 eigenvalues not converged
     c_bands:  3 eigenvalues not converged
     c_bands:  5 eigenvalues not converged
     c_bands:  1 eigenvalues not converged
     c_bands:  1 eigenvalues not converged
     c_bands:  4 eigenvalues not converged
     ethr =  1.00E-06,  avg # of iterations = 20.7

     negative rho (up, down):  1.438E-04 0.000E+00

     total cpu time spent up to now is      109.4 secs

     total energy              =     -39.19703146 Ry
     estimated scf accuracy    <       0.00730273 Ry

     iteration #  2     ecut=    40.00 Ry     beta= 0.70
     Davidson diagonalization with overlap
     ethr =  7.30E-05,  avg # of iterations =  1.7

     negative rho (up, down):  1.396E-04 0.000E+00

     total cpu time spent up to now is      111.8 secs

     total energy              =     -39.19760656 Ry
     estimated scf accuracy    <       0.00016979 Ry

     iteration #  3     ecut=    40.00 Ry     beta= 0.70
     Davidson diagonalization with overlap
     c_bands:  1 eigenvalues not converged
     c_bands:  1 eigenvalues not converged
     ethr =  1.70E-06,  avg # of iterations =  8.8

     negative rho (up, down):  1.413E-04 0.000E+00

     total cpu time spent up to now is      116.1 secs

     total energy              =     -39.19795771 Ry
     estimated scf accuracy    <       0.00008761 Ry

     iteration #  4     ecut=    40.00 Ry     beta= 0.70
     Davidson diagonalization with overlap
     c_bands:  1 eigenvalues not converged
     ethr =  8.76E-07,  avg # of iterations =  2.6

     negative rho (up, down):  1.409E-04 0.000E+00

     total cpu time spent up to now is      117.6 secs

     total energy              =     -39.19796390 Ry
     estimated scf accuracy    <       0.00000672 Ry

     iteration #  5     ecut=    40.00 Ry     beta= 0.70
     Davidson diagonalization with overlap
     ethr =  6.72E-08,  avg # of iterations =  4.3

     negative rho (up, down):  1.406E-04 0.000E+00

     total cpu time spent up to now is      119.8 secs

     total energy              =     -39.19796955 Ry
     estimated scf accuracy    <       0.00001141 Ry

     iteration #  6     ecut=    40.00 Ry     beta= 0.70
     Davidson diagonalization with overlap
     ethr =  6.72E-08,  avg # of iterations =  1.1

     negative rho (up, down):  1.407E-04 0.000E+00

     total cpu time spent up to now is      121.3 secs

     total energy              =     -39.19796998 Ry
     estimated scf accuracy    <       0.00000093 Ry

     iteration #  7     ecut=    40.00 Ry     beta= 0.70
     Davidson diagonalization with overlap
     ethr =  9.30E-09,  avg # of iterations =  4.3

     negative rho (up, down):  1.408E-04 0.000E+00

     total cpu time spent up to now is      123.5 secs

     total energy              =     -39.19797079 Ry
     estimated scf accuracy    <       0.00000052 Ry

     iteration #  8     ecut=    40.00 Ry     beta= 0.70
     Davidson diagonalization with overlap
     ethr =  5.17E-09,  avg # of iterations =  1.1

     negative rho (up, down):  1.408E-04 0.000E+00

     total cpu time spent up to now is      126.2 secs

     End of self-consistent calculation

          k = 0.0000 0.0000 0.0000 (  4517 PWs)   bands (ev):

   -19.6699 -12.4880  -8.2351  -7.8803  -6.6414   0.3636   1.4679   1.8495
     1.9826

          k = 0.0250 0.0000 0.0000 (  4529 PWs)   bands (ev):

   -19.6596 -12.4780  -8.2728  -7.8664  -6.6456   0.3764   1.4845   1.8623
     1.9906

          k = 0.0500 0.0000 0.0000 (  4545 PWs)   bands (ev):

   -19.6285 -12.4481  -8.3849  -7.8249  -6.6567   0.4147   1.5337   1.9007
     2.0138

          k = 0.0750 0.0000 0.0000 (  4545 PWs)   bands (ev):

   -19.5768 -12.3984  -8.5680  -7.7558  -6.6724   0.4783   1.6142   1.9644
     2.0500

          k = 0.1000 0.0000 0.0000 (  4521 PWs)   bands (ev):

   -19.5044 -12.3294  -8.8161  -7.6591  -6.6908   0.5666   1.7243   2.0532
     2.0952

          k = 0.1250 0.0000 0.0000 (  4521 PWs)   bands (ev):

   -19.4114 -12.2421  -9.1200  -7.5350  -6.7120   0.6785   1.8625   2.1427
     2.1666

          k = 0.1500 0.0000 0.0000 (  4529 PWs)   bands (ev):

   -19.2979 -12.1376  -9.4689  -7.3836  -6.7374   0.8129   2.0274   2.1820
     2.3041

          k = 0.1750 0.0000 0.0000 (  4521 PWs)   bands (ev):

   -19.1641 -12.0186  -9.8505  -7.2051  -6.7697   0.9680   2.1982   2.2181
     2.4653

          k = 0.2000 0.0000 0.0000 (  4529 PWs)   bands (ev):

   -19.0100 -11.8908 -10.2503  -6.9997  -6.8124   1.1417   2.1709   2.4337
     2.6499

          k = 0.2250 0.0000 0.0000 (  4533 PWs)   bands (ev):

   -18.8358 -11.7709 -10.6443  -6.8692  -6.7677   1.3313   2.0776   2.6738
     2.8582

          k = 0.2500 0.0000 0.0000 (  4533 PWs)   bands (ev):

   -18.6416 -11.7230 -10.9624  -6.9433  -6.5094   1.5340   1.9005   2.9373
     3.0913

          k = 0.2750 0.0000 0.0000 (  4545 PWs)   bands (ev):

   -18.4277 -11.9004 -11.0463  -7.0379  -6.2252   1.6341   1.7475   3.2234
     3.3513

          k = 0.3000 0.0000 0.0000 (  4545 PWs)   bands (ev):

   -18.1942 -12.2693 -10.9264  -7.1552  -5.9157   1.2872   1.9701   3.5313
     3.6411

          k = 0.3250 0.0000 0.0000 (  4526 PWs)   bands (ev):

   -17.9415 -12.6966 -10.7333  -7.2964  -5.5813   0.8765   2.2021   3.8610
     3.9621

          k = 0.3500 0.0000 0.0000 (  4554 PWs)   bands (ev):

   -17.6699 -13.1383 -10.5097  -7.4618  -5.2230   0.4204   2.4451   4.2141
     4.3131

          k = 0.3750 0.0000 0.0000 (  4550 PWs)   bands (ev):

   -17.3797 -13.5808 -10.2686  -7.6496  -4.8416  -0.0650   2.7023   4.5900
     4.6913

          k = 0.4000 0.0000 0.0000 (  4550 PWs)   bands (ev):

   -17.0713 -14.0179 -10.0165  -7.8575  -4.4385  -0.5665   2.9763   4.9770
     5.0938

          k = 0.4250 0.0000 0.0000 (  4538 PWs)   bands (ev):

   -16.7453 -14.4462  -9.7590  -8.0807  -4.0156  -1.0736   3.2670   5.3040
     5.5164

          k = 0.4500 0.0000 0.0000 (  4534 PWs)   bands (ev):

   -16.4027 -14.8631  -9.5046  -8.3112  -3.5769  -1.5764   3.5674   5.2873
     5.9435

          k = 0.4750 0.0000 0.0000 (  4546 PWs)   bands (ev):

   -16.0455 -15.2652  -9.2743  -8.5274  -3.1354  -2.0578   3.8464   5.0230
     6.3370

          k = 0.5000 0.0000 0.0000 (  4546 PWs)   bands (ev):

   -15.7329 -15.5928  -9.1553  -8.6418  -2.8305  -2.3763   3.9865   4.8743
     6.5496

     the Fermi energy is    -2.6034 ev

!    total energy              =     -39.19797075 Ry

     total all-electron energy =      -154.726174 Ry
     estimated scf accuracy    <       0.00000010 Ry
     smearing contrib. (-TS)   =      -0.00003314 Ry
     internal energy E=F+TS    =     -39.19793761 Ry

     The total energy is F=E-TS. E is the sum of the following terms:
     one-electron contribution =     -68.49854450 Ry
     hartree contribution      =      35.93509733 Ry
     xc contribution           =      -9.64185925 Ry
     ewald contribution        =      16.31878304 Ry
     one-center paw contrib.   =     -13.31141423 Ry

     convergence has been achieved in   8 iterations

     negative rho (up, down):  1.408E-04 0.000E+00

     Forces acting on atoms (cartesian axes, Ry/au):

     atom    1 type  1   force =     0.04173140   -0.11287768    0.00000000
     atom    2 type  1   force =    -0.04182527    0.11281791    0.00000000
     atom    3 type  2   force =    -0.02717334    0.03750981    0.00000000
     atom    4 type  2   force =     0.02726721   -0.03745003    0.00000000

     Total force =     0.182350     Total SCF correction =     0.000522
     Energy error            =      7.1E-05
     Gradient error          =      1.1E-01

     number of scf cycles    =   4
     number of bfgs steps    =   2

     energy   old            =     -39.1980416204 Ry
     energy   new            =     -39.1979707459 Ry

     CASE: energy  _new > energy  _old

     new trust radius        =       0.0526057290 bohr
     new conv_thr            =       0.0000001000 Ry


ATOMIC_POSITIONS (angstrom)
C            -0.1059562634        5.0043497722        0.0000000000
C             1.1359298627        5.6556321880        0.0000000000
H            -0.0054065936        3.9118384470        0.0000000000
H             1.0354329942        6.7481795928        0.0000000000



     Writing output data file ./polyene.save/
     NEW-OLD atomic charge density approx. for the potential

     Check: negative core charge=   -0.000012

     negative rho (up, down):  1.423E-04 0.000E+00

     total cpu time spent up to now is      127.4 secs

     Self-consistent Calculation

     iteration #  1     ecut=    40.00 Ry     beta= 0.70
     Davidson diagonalization with overlap
     ethr =  1.00E-06,  avg # of iterations = 15.0

     negative rho (up, down):  1.569E-04 0.000E+00

     total cpu time spent up to now is      134.2 secs

     total energy              =     -39.20505813 Ry
     estimated scf accuracy    <       0.00179618 Ry

     iteration #  2     ecut=    40.00 Ry     beta= 0.70
     Davidson diagonalization with overlap
     ethr =  1.80E-05,  avg # of iterations =  1.6

     negative rho (up, down):  1.584E-04 0.000E+00

     total cpu time spent up to now is      135.9 secs

     total energy              =     -39.20524706 Ry
     estimated scf accuracy    <       0.00003365 Ry

     iteration #  3     ecut=    40.00 Ry     beta= 0.70
     Davidson diagonalization with overlap
     ethr =  3.37E-07,  avg # of iterations =  5.7

     negative rho (up, down):  1.591E-04 0.000E+00

     total cpu time spent up to now is      140.3 secs

     total energy              =     -39.20530133 Ry
     estimated scf accuracy    <       0.00001749 Ry

     iteration #  4     ecut=    40.00 Ry     beta= 0.70
     Davidson diagonalization with overlap
     ethr =  1.75E-07,  avg # of iterations =  1.4

     negative rho (up, down):  1.597E-04 0.000E+00

     total cpu time spent up to now is      141.9 secs

     total energy              =     -39.20530282 Ry
     estimated scf accuracy    <       0.00000932 Ry

     iteration #  5     ecut=    40.00 Ry     beta= 0.70
     Davidson diagonalization with overlap
     ethr =  9.32E-08,  avg # of iterations =  1.5

     negative rho (up, down):  1.599E-04 0.000E+00

     total cpu time spent up to now is      143.4 secs

     total energy              =     -39.20530488 Ry
     estimated scf accuracy    <       0.00000038 Ry

     iteration #  6     ecut=    40.00 Ry     beta= 0.70
     Davidson diagonalization with overlap
     ethr =  3.82E-09,  avg # of iterations =  8.5

     negative rho (up, down):  1.600E-04 0.000E+00

     total cpu time spent up to now is      146.7 secs

     total energy              =     -39.20530568 Ry
     estimated scf accuracy    <       0.00000045 Ry

     iteration #  7     ecut=    40.00 Ry     beta= 0.70
     Davidson diagonalization with overlap
     ethr =  3.82E-09,  avg # of iterations =  2.0

     negative rho (up, down):  1.601E-04 0.000E+00

     total cpu time spent up to now is      148.2 secs

     End of self-consistent calculation

          k = 0.0000 0.0000 0.0000 (  4517 PWs)   bands (ev):

   -19.4789 -12.7072  -7.6505  -7.6423  -6.9031   0.3299   1.6991   1.7964
     1.8598

          k = 0.0250 0.0000 0.0000 (  4529 PWs)   bands (ev):

   -19.4684 -12.6976  -7.6806  -7.6286  -6.9182   0.3429   1.7149   1.8037
     1.8729

          k = 0.0500 0.0000 0.0000 (  4545 PWs)   bands (ev):

   -19.4367 -12.6690  -7.7755  -7.5875  -6.9561   0.3820   1.7617   1.8247
     1.9122

          k = 0.0750 0.0000 0.0000 (  4545 PWs)   bands (ev):

   -19.3839 -12.6215  -7.9441  -7.5191  -7.0012   0.4469   1.8387   1.8575
     1.9774

          k = 0.1000 0.0000 0.0000 (  4521 PWs)   bands (ev):

   -19.3099 -12.5557  -8.1882  -7.4233  -7.0421   0.5370   1.8980   1.9448
     2.0684

          k = 0.1250 0.0000 0.0000 (  4521 PWs)   bands (ev):

   -19.2150 -12.4726  -8.4989  -7.3004  -7.0771   0.6516   1.9402   2.0786
     2.1848

          k = 0.1500 0.0000 0.0000 (  4529 PWs)   bands (ev):

   -19.0992 -12.3734  -8.8618  -7.1505  -7.1098   0.7896   1.9746   2.2392
     2.3261

          k = 0.1750 0.0000 0.0000 (  4521 PWs)   bands (ev):

   -18.9625 -12.2606  -9.2613  -7.1451  -6.9739   0.9495   1.9885   2.4253
     2.4924

          k = 0.2000 0.0000 0.0000 (  4529 PWs)   bands (ev):

   -18.8051 -12.1385  -9.6820  -7.1881  -6.7706   1.1294   1.9649   2.6347
     2.6849

          k = 0.2250 0.0000 0.0000 (  4533 PWs)   bands (ev):

   -18.6271 -12.0166 -10.1056  -7.2430  -6.5411   1.3272   1.8854   2.8619
     2.9085

          k = 0.2500 0.0000 0.0000 (  4533 PWs)   bands (ev):

   -18.4287 -11.9185 -10.5018  -7.3134  -6.2858   1.5403   1.7341   3.1030
     3.1667

          k = 0.2750 0.0000 0.0000 (  4545 PWs)   bands (ev):

   -18.2100 -11.9068 -10.8027  -7.4023  -6.0049   1.5038   1.7661   3.3629
     3.4555

          k = 0.3000 0.0000 0.0000 (  4545 PWs)   bands (ev):

   -17.9713 -12.0790 -10.9073  -7.5120  -5.6991   1.1980   2.0029   3.6462
     3.7712

          k = 0.3250 0.0000 0.0000 (  4526 PWs)   bands (ev):

   -17.7128 -12.4181 -10.8298  -7.6436  -5.3690   0.8283   2.2498   3.9567
     4.1122

          k = 0.3500 0.0000 0.0000 (  4554 PWs)   bands (ev):

   -17.4349 -12.8301 -10.6635  -7.7973  -5.0154   0.4098   2.5076   4.2966
     4.4772

          k = 0.3750 0.0000 0.0000 (  4550 PWs)   bands (ev):

   -17.1378 -13.2652 -10.4573  -7.9716  -4.6391  -0.0429   2.7784   4.6664
     4.8649

          k = 0.4000 0.0000 0.0000 (  4550 PWs)   bands (ev):

   -16.8221 -13.7042 -10.2315  -8.1637  -4.2412  -0.5172   3.0644   5.0592
     5.2727

          k = 0.4250 0.0000 0.0000 (  4538 PWs)   bands (ev):

   -16.4883 -14.1387  -9.9977  -8.3686  -3.8232  -1.0029   3.3663   5.4246
     5.6956

          k = 0.4500 0.0000 0.0000 (  4534 PWs)   bands (ev):

   -16.1372 -14.5636  -9.7681  -8.5768  -3.3870  -1.4918   3.6787   5.4198
     6.1092

          k = 0.4750 0.0000 0.0000 (  4546 PWs)   bands (ev):

   -15.7709 -14.9751  -9.5684  -8.7636  -2.9359  -1.9760   3.9736   5.1193
     6.5257

          k = 0.5000 0.0000 0.0000 (  4546 PWs)   bands (ev):

   -15.4445 -15.3166  -9.4742  -8.8535  -2.5370  -2.3862   4.1276   4.9515
     6.7751

     the Fermi energy is    -2.4616 ev

!    total energy              =     -39.20530576 Ry

     total all-electron energy =      -154.733509 Ry
     estimated scf accuracy    <          6.3E-09 Ry
     smearing contrib. (-TS)   =      -0.00039525 Ry
     internal energy E=F+TS    =     -39.20491051 Ry

     The total energy is F=E-TS. E is the sum of the following terms:
     one-electron contribution =     -68.25009721 Ry
     hartree contribution      =      35.84278816 Ry
     xc contribution           =      -9.65001201 Ry
     ewald contribution        =      16.16270074 Ry
     one-center paw contrib.   =     -13.31029020 Ry

     convergence has been achieved in   7 iterations

     negative rho (up, down):  1.601E-04 0.000E+00

     Forces acting on atoms (cartesian axes, Ry/au):

     atom    1 type  1   force =     0.01921270   -0.00071941    0.00000000
     atom    2 type  1   force =    -0.01934301    0.00063111    0.00000000
     atom    3 type  2   force =    -0.02335212   -0.00182298    0.00000000
     atom    4 type  2   force =     0.02348242    0.00191128    0.00000000

     Total force =     0.042987     Total SCF correction =     0.000074
     Energy error            =      7.3E-03
     Gradient error          =      2.3E-02

     number of scf cycles    =   5
     number of bfgs steps    =   2

     energy   old            =     -39.1980416204 Ry
     energy   new            =     -39.2053057594 Ry

     CASE: energy  _new < energy  _old

     new trust radius        =       0.0236844351 bohr
     new conv_thr            =       0.0000000235 Ry


ATOMIC_POSITIONS (angstrom)
C            -0.1008034854        5.0034103608        0.0000000000
C             1.1307087588        5.6565240064        0.0000000000
H            -0.0177230202        3.9099623481        0.0000000000
H             1.0478177469        6.7501032847        0.0000000000



     Writing output data file ./polyene.save/
     NEW-OLD atomic charge density approx. for the potential

     Check: negative core charge=   -0.000012

     negative rho (up, down):  1.602E-04 0.000E+00

     total cpu time spent up to now is      148.9 secs

     Self-consistent Calculation

     iteration #  1     ecut=    40.00 Ry     beta= 0.70
     Davidson diagonalization with overlap
     ethr =  1.00E-06,  avg # of iterations =  6.2

     negative rho (up, down):  1.613E-04 0.000E+00

     total cpu time spent up to now is      152.4 secs

     total energy              =     -39.20664253 Ry
     estimated scf accuracy    <       0.00024391 Ry

     iteration #  2     ecut=    40.00 Ry     beta= 0.70
     Davidson diagonalization with overlap
     ethr =  2.44E-06,  avg # of iterations =  1.7

     negative rho (up, down):  1.619E-04 0.000E+00

     total cpu time spent up to now is      154.7 secs

     total energy              =     -39.20667079 Ry
     estimated scf accuracy    <       0.00000303 Ry

     iteration #  3     ecut=    40.00 Ry     beta= 0.70
     Davidson diagonalization with overlap
     ethr =  3.03E-08,  avg # of iterations =  7.4

     negative rho (up, down):  1.618E-04 0.000E+00

     total cpu time spent up to now is      157.7 secs

     total energy              =     -39.20668164 Ry
     estimated scf accuracy    <       0.00000235 Ry

     iteration #  4     ecut=    40.00 Ry     beta= 0.70
     Davidson diagonalization with overlap
     ethr =  2.35E-08,  avg # of iterations =  1.8

     negative rho (up, down):  1.619E-04 0.000E+00

     total cpu time spent up to now is      159.3 secs

     total energy              =     -39.20668201 Ry
     estimated scf accuracy    <       0.00000021 Ry

     iteration #  5     ecut=    40.00 Ry     beta= 0.70
     Davidson diagonalization with overlap
     ethr =  2.11E-09,  avg # of iterations =  4.4

     negative rho (up, down):  1.619E-04 0.000E+00

     total cpu time spent up to now is      161.5 secs

     total energy              =     -39.20668210 Ry
     estimated scf accuracy    <       0.00000054 Ry

     iteration #  6     ecut=    40.00 Ry     beta= 0.70
     Davidson diagonalization with overlap
     ethr =  2.11E-09,  avg # of iterations =  1.1

     negative rho (up, down):  1.619E-04 0.000E+00

     total cpu time spent up to now is      163.0 secs

     End of self-consistent calculation

          k = 0.0000 0.0000 0.0000 (  4517 PWs)   bands (ev):

   -19.4658 -12.7070  -7.6313  -7.5338  -7.0118   0.3282   1.6996   1.7904
     1.8587

          k = 0.0250 0.0000 0.0000 (  4529 PWs)   bands (ev):

   -19.4552 -12.6975  -7.6176  -7.5657  -7.0252   0.3413   1.7153   1.7976
     1.8718

          k = 0.0500 0.0000 0.0000 (  4545 PWs)   bands (ev):

   -19.4235 -12.6689  -7.6675  -7.5765  -7.0564   0.3805   1.7622   1.8186
     1.9111

          k = 0.0750 0.0000 0.0000 (  4545 PWs)   bands (ev):

   -19.3706 -12.6216  -7.8488  -7.5080  -7.0891   0.4456   1.8394   1.8513
     1.9763

          k = 0.1000 0.0000 0.0000 (  4521 PWs)   bands (ev):

   -19.2966 -12.5559  -8.1074  -7.4123  -7.1159   0.5359   1.8917   1.9456
     2.0673

          k = 0.1250 0.0000 0.0000 (  4521 PWs)   bands (ev):

   -19.2017 -12.4730  -8.4309  -7.2895  -7.1385   0.6507   1.9337   2.0798
     2.1835

          k = 0.1500 0.0000 0.0000 (  4529 PWs)   bands (ev):

   -19.0857 -12.3742  -8.8035  -7.1618  -7.1396   0.7890   1.9681   2.2410
     2.3245

          k = 0.1750 0.0000 0.0000 (  4521 PWs)   bands (ev):

   -18.9490 -12.2617  -9.2101  -7.1902  -6.9630   0.9493   1.9820   2.4284
     2.4901

          k = 0.2000 0.0000 0.0000 (  4529 PWs)   bands (ev):

   -18.7915 -12.1401  -9.6360  -7.2281  -6.7598   1.1298   1.9586   2.6402
     2.6809

          k = 0.2250 0.0000 0.0000 (  4533 PWs)   bands (ev):

   -18.6134 -12.0186 -10.0636  -7.2791  -6.5304   1.3282   1.8796   2.8701
     2.9025

          k = 0.2500 0.0000 0.0000 (  4533 PWs)   bands (ev):

   -18.4148 -11.9202 -10.4634  -7.3465  -6.2751   1.5422   1.7293   3.1113
     3.1617

          k = 0.2750 0.0000 0.0000 (  4545 PWs)   bands (ev):

   -18.1960 -11.9050 -10.7705  -7.4331  -5.9943   1.5002   1.7693   3.3708
     3.4518

          k = 0.3000 0.0000 0.0000 (  4545 PWs)   bands (ev):

   -17.9572 -12.0687 -10.8856  -7.5408  -5.6886   1.1958   2.0077   3.6545
     3.7685

          k = 0.3250 0.0000 0.0000 (  4526 PWs)   bands (ev):

   -17.6986 -12.4015 -10.8161  -7.6708  -5.3586   0.8276   2.2565   3.9657
     4.1103

          k = 0.3500 0.0000 0.0000 (  4554 PWs)   bands (ev):

   -17.4206 -12.8107 -10.6536  -7.8234  -5.0051   0.4103   2.5167   4.3069
     4.4760

          k = 0.3750 0.0000 0.0000 (  4550 PWs)   bands (ev):

   -17.1235 -13.2448 -10.4490  -7.9971  -4.6288  -0.0413   2.7904   4.6787
     4.8643

          k = 0.4000 0.0000 0.0000 (  4550 PWs)   bands (ev):

   -16.8078 -13.6834 -10.2233  -8.1893  -4.2310  -0.5148   3.0802   5.0763
     5.2730

          k = 0.4250 0.0000 0.0000 (  4538 PWs)   bands (ev):

   -16.4743 -14.1175  -9.9881  -8.3955  -3.8128  -1.0000   3.3876   5.4545
     5.6948

          k = 0.4500 0.0000 0.0000 (  4534 PWs)   bands (ev):

   -16.1240 -14.5417  -9.7548  -8.6073  -3.3760  -1.4890   3.7087   5.4274
     6.1045

          k = 0.4750 0.0000 0.0000 (  4546 PWs)   bands (ev):

   -15.7606 -14.9501  -9.5468  -8.8023  -2.9224  -1.9755   4.0204   5.0949
     6.5368

          k = 0.5000 0.0000 0.0000 (  4546 PWs)   bands (ev):

   -15.4612 -15.2646  -9.4439  -8.9009  -2.4558  -2.4533   4.1938   4.9048
     6.8055

     the Fermi energy is    -2.4546 ev

!    total energy              =     -39.20668216 Ry

     total all-electron energy =      -154.734885 Ry
     estimated scf accuracy    <       0.00000002 Ry
     smearing contrib. (-TS)   =      -0.00053728 Ry
     internal energy E=F+TS    =     -39.20614488 Ry

     The total energy is F=E-TS. E is the sum of the following terms:
     one-electron contribution =     -68.20510119 Ry
     hartree contribution      =      35.82158097 Ry
     xc contribution           =      -9.64874294 Ry
     ewald contribution        =      16.13633153 Ry
     one-center paw contrib.   =     -13.31021325 Ry

     convergence has been achieved in   6 iterations

     negative rho (up, down):  1.619E-04 0.000E+00

     Forces acting on atoms (cartesian axes, Ry/au):

     atom    1 type  1   force =     0.01986274    0.00287115    0.00000000
     atom    2 type  1   force =    -0.01999148   -0.00270613    0.00000000
     atom    3 type  2   force =    -0.01917704   -0.00149831    0.00000000
     atom    4 type  2   force =     0.01930579    0.00133329    0.00000000

     Total force =     0.039424     Total SCF correction =     0.000215
     Energy error            =      1.4E-03
     Gradient error          =      2.0E-02

     number of scf cycles    =   6
     number of bfgs steps    =   3

     energy   old            =     -39.2053057594 Ry
     energy   new            =     -39.2066821568 Ry

     CASE: energy  _new < energy  _old


     WARNING: bfgs curvature condition failed, Theta= 0.923
     new trust radius        =       0.0260528786 bohr
     new conv_thr            =       0.0000000138 Ry


ATOMIC_POSITIONS (angstrom)
C            -0.0940796112        5.0029977878        0.0000000000
C             1.1238972785        5.6570203874        0.0000000000
H            -0.0313183859        3.9081914295        0.0000000000
H             1.0615007185        6.7517903953        0.0000000000



     Writing output data file ./polyene.save/
     NEW-OLD atomic charge density approx. for the potential

     Check: negative core charge=   -0.000012

     negative rho (up, down):  1.621E-04 0.000E+00

     total cpu time spent up to now is      163.8 secs

     Self-consistent Calculation

     iteration #  1     ecut=    40.00 Ry     beta= 0.70
     Davidson diagonalization with overlap
     c_bands:  1 eigenvalues not converged
     ethr =  1.00E-06,  avg # of iterations =  8.2

     negative rho (up, down):  1.629E-04 0.000E+00

     total cpu time spent up to now is      169.1 secs

     total energy              =     -39.20802239 Ry
     estimated scf accuracy    <       0.00037371 Ry

     iteration #  2     ecut=    40.00 Ry     beta= 0.70
     Davidson diagonalization with overlap
     ethr =  3.74E-06,  avg # of iterations =  1.6

     negative rho (up, down):  1.632E-04 0.000E+00

     total cpu time spent up to now is      170.7 secs

     total energy              =     -39.20806486 Ry
     estimated scf accuracy    <       0.00000485 Ry

     iteration #  3     ecut=    40.00 Ry     beta= 0.70
     Davidson diagonalization with overlap
     ethr =  4.85E-08,  avg # of iterations =  6.8

     negative rho (up, down):  1.633E-04 0.000E+00

     total cpu time spent up to now is      173.7 secs

     total energy              =     -39.20807892 Ry
     estimated scf accuracy    <       0.00000307 Ry

     iteration #  4     ecut=    40.00 Ry     beta= 0.70
     Davidson diagonalization with overlap
     ethr =  3.07E-08,  avg # of iterations =  2.0

     negative rho (up, down):  1.633E-04 0.000E+00

     total cpu time spent up to now is      175.4 secs

     total energy              =     -39.20807948 Ry
     estimated scf accuracy    <       0.00000031 Ry

     iteration #  5     ecut=    40.00 Ry     beta= 0.70
     Davidson diagonalization with overlap
     ethr =  3.13E-09,  avg # of iterations =  3.9

     negative rho (up, down):  1.633E-04 0.000E+00

     total cpu time spent up to now is      177.5 secs

     total energy              =     -39.20807963 Ry
     estimated scf accuracy    <       0.00000042 Ry

     iteration #  6     ecut=    40.00 Ry     beta= 0.70
     Davidson diagonalization with overlap
     ethr =  3.13E-09,  avg # of iterations =  1.2

     negative rho (up, down):  1.633E-04 0.000E+00

     total cpu time spent up to now is      179.2 secs

     End of self-consistent calculation

          k = 0.0000 0.0000 0.0000 (  4517 PWs)   bands (ev):

   -19.4555 -12.7039  -7.6233  -7.4008  -7.1377   0.3271   1.6979   1.7890
     1.8578

          k = 0.0250 0.0000 0.0000 (  4529 PWs)   bands (ev):

   -19.4449 -12.6943  -7.6096  -7.4389  -7.1449   0.3402   1.7137   1.7962
     1.8709

          k = 0.0500 0.0000 0.0000 (  4545 PWs)   bands (ev):

   -19.4132 -12.6658  -7.5685  -7.5591  -7.1579   0.3795   1.7607   1.8173
     1.9102

          k = 0.0750 0.0000 0.0000 (  4545 PWs)   bands (ev):

   -19.3604 -12.6186  -7.7630  -7.5001  -7.1683   0.4446   1.8380   1.8499
     1.9754

          k = 0.1000 0.0000 0.0000 (  4521 PWs)   bands (ev):

   -19.2864 -12.5531  -8.0403  -7.4044  -7.1767   0.5351   1.8904   1.9444
     2.0663

          k = 0.1250 0.0000 0.0000 (  4521 PWs)   bands (ev):

   -19.1914 -12.4703  -8.3767  -7.2816  -7.1867   0.6501   1.9325   2.0789
     2.1824

          k = 0.1500 0.0000 0.0000 (  4529 PWs)   bands (ev):

   -19.0755 -12.3717  -8.7581  -7.2015  -7.1319   0.7886   1.9670   2.2407
     2.3231

          k = 0.1750 0.0000 0.0000 (  4521 PWs)   bands (ev):

   -18.9387 -12.2595  -9.1706  -7.2241  -6.9553   0.9492   1.9811   2.4291
     2.4880

          k = 0.2000 0.0000 0.0000 (  4529 PWs)   bands (ev):

   -18.7812 -12.1383  -9.6006  -7.2580  -6.7523   1.1301   1.9582   2.6434
     2.6768

          k = 0.2250 0.0000 0.0000 (  4533 PWs)   bands (ev):

   -18.6031 -12.0171 -10.0311  -7.3060  -6.5230   1.3291   1.8798   2.8787
     2.8936

          k = 0.2500 0.0000 0.0000 (  4533 PWs)   bands (ev):

   -18.4046 -11.9186 -10.4334  -7.3712  -6.2678   1.5439   1.7304   3.1185
     3.1551

          k = 0.2750 0.0000 0.0000 (  4545 PWs)   bands (ev):

   -18.1859 -11.9013 -10.7445  -7.4560  -5.9873   1.5024   1.7720   3.3772
     3.4470

          k = 0.3000 0.0000 0.0000 (  4545 PWs)   bands (ev):

   -17.9471 -12.0595 -10.8664  -7.5624  -5.6818   1.1991   2.0118   3.6612
     3.7647

          k = 0.3250 0.0000 0.0000 (  4526 PWs)   bands (ev):

   -17.6886 -12.3876 -10.8025  -7.6914  -5.3521   0.8320   2.2625   3.9732
     4.1071

          k = 0.3500 0.0000 0.0000 (  4554 PWs)   bands (ev):

   -17.4108 -12.7946 -10.6426  -7.8434  -4.9989   0.4159   2.5249   4.3157
     4.4735

          k = 0.3750 0.0000 0.0000 (  4550 PWs)   bands (ev):

   -17.1140 -13.2275 -10.4389  -8.0168  -4.6231  -0.0347   2.8015   4.6899
     4.8624

          k = 0.4000 0.0000 0.0000 (  4550 PWs)   bands (ev):

   -16.7989 -13.6652 -10.2130  -8.2095  -4.2260  -0.5070   3.0950   5.0928
     5.2712

          k = 0.4250 0.0000 0.0000 (  4538 PWs)   bands (ev):

   -16.4664 -14.0982  -9.9761  -8.4174  -3.8089  -0.9908   3.4077   5.4871
     5.6898

          k = 0.4500 0.0000 0.0000 (  4534 PWs)   bands (ev):

   -16.1183 -14.5201  -9.7385  -8.6333  -3.3741  -1.4775   3.7377   5.4339
     6.0871

          k = 0.4750 0.0000 0.0000 (  4546 PWs)   bands (ev):

   -15.7617 -14.9218  -9.5207  -8.8381  -2.9261  -1.9582   4.0677   5.0688
     6.5427

          k = 0.5000 0.0000 0.0000 (  4546 PWs)   bands (ev):

   -15.4963 -15.2024  -9.4057  -8.9486  -2.5494  -2.3461   4.2677   4.8495
     6.8390

     the Fermi energy is    -2.4478 ev

!    total energy              =     -39.20807968 Ry

     total all-electron energy =      -154.736283 Ry
     estimated scf accuracy    <          7.5E-09 Ry
     smearing contrib. (-TS)   =      -0.00030762 Ry
     internal energy E=F+TS    =     -39.20777206 Ry

     The total energy is F=E-TS. E is the sum of the following terms:
     one-electron contribution =     -68.17773492 Ry
     hartree contribution      =      35.80929006 Ry
     xc contribution           =      -9.64857094 Ry
     ewald contribution        =      16.11945858 Ry
     one-center paw contrib.   =     -13.31021484 Ry

     convergence has been achieved in   6 iterations

     negative rho (up, down):  1.633E-04 0.000E+00

     Forces acting on atoms (cartesian axes, Ry/au):

     atom    1 type  1   force =     0.01981753    0.00392603    0.00000000
     atom    2 type  1   force =    -0.01990806   -0.00399765    0.00000000
     atom    3 type  2   force =    -0.01438267   -0.00061908    0.00000000
     atom    4 type  2   force =     0.01447320    0.00069069    0.00000000

     Total force =     0.035180     Total SCF correction =     0.000144
     Energy error            =      1.4E-03
     Gradient error          =      2.0E-02

     number of scf cycles    =   7
     number of bfgs steps    =   4

     energy   old            =     -39.2066821568 Ry
     energy   new            =     -39.2080796813 Ry

     CASE: energy  _new < energy  _old

     new trust radius        =       0.0390793179 bohr
     new conv_thr            =       0.0000000140 Ry


ATOMIC_POSITIONS (angstrom)
C            -0.0816406984        5.0023442320        0.0000000000
C             1.1113346092        5.6575922414        0.0000000000
H            -0.0517674914        3.9061719505        0.0000000000
H             1.0820735807        6.7538915761        0.0000000000



     Writing output data file ./polyene.save/
     NEW-OLD atomic charge density approx. for the potential

     Check: negative core charge=   -0.000012

     negative rho (up, down):  1.644E-04 0.000E+00

     total cpu time spent up to now is      180.4 secs

     Self-consistent Calculation

     iteration #  1     ecut=    40.00 Ry     beta= 0.70
     Davidson diagonalization with overlap
     c_bands:  1 eigenvalues not converged
     ethr =  1.00E-06,  avg # of iterations = 10.8

     negative rho (up, down):  1.653E-04 0.000E+00

     total cpu time spent up to now is      185.5 secs

     total energy              =     -39.20911460 Ry
     estimated scf accuracy    <       0.00061395 Ry

     iteration #  2     ecut=    40.00 Ry     beta= 0.70
     Davidson diagonalization with overlap
     ethr =  6.14E-06,  avg # of iterations =  1.8

     negative rho (up, down):  1.657E-04 0.000E+00

     total cpu time spent up to now is      187.0 secs

     total energy              =     -39.20918075 Ry
     estimated scf accuracy    <       0.00001127 Ry

     iteration #  3     ecut=    40.00 Ry     beta= 0.70
     Davidson diagonalization with overlap
     ethr =  1.13E-07,  avg # of iterations =  5.3

     negative rho (up, down):  1.657E-04 0.000E+00

     total cpu time spent up to now is      189.3 secs

     total energy              =     -39.20920252 Ry
     estimated scf accuracy    <       0.00000502 Ry

     iteration #  4     ecut=    40.00 Ry     beta= 0.70
     Davidson diagonalization with overlap
     ethr =  5.02E-08,  avg # of iterations =  1.4

     negative rho (up, down):  1.656E-04 0.000E+00

     total cpu time spent up to now is      190.8 secs

     total energy              =     -39.20920281 Ry
     estimated scf accuracy    <       0.00000080 Ry

     iteration #  5     ecut=    40.00 Ry     beta= 0.70
     Davidson diagonalization with overlap
     ethr =  7.97E-09,  avg # of iterations =  4.2

     negative rho (up, down):  1.656E-04 0.000E+00

     total cpu time spent up to now is      193.8 secs

     total energy              =     -39.20920331 Ry
     estimated scf accuracy    <       0.00000068 Ry

     iteration #  6     ecut=    40.00 Ry     beta= 0.70
     Davidson diagonalization with overlap
     ethr =  6.75E-09,  avg # of iterations =  1.1

     negative rho (up, down):  1.657E-04 0.000E+00

     total cpu time spent up to now is      196.2 secs

     total energy              =     -39.20920332 Ry
     estimated scf accuracy    <       0.00000009 Ry

     iteration #  7     ecut=    40.00 Ry     beta= 0.70
     Davidson diagonalization with overlap
     ethr =  9.17E-10,  avg # of iterations =  4.3

     negative rho (up, down):  1.657E-04 0.000E+00

     total cpu time spent up to now is      198.4 secs

     total energy              =     -39.20920338 Ry
     estimated scf accuracy    <       0.00000002 Ry

     iteration #  8     ecut=    40.00 Ry     beta= 0.70
     Davidson diagonalization with overlap
     ethr =  2.03E-10,  avg # of iterations =  2.4

     negative rho (up, down):  1.657E-04 0.000E+00

     total cpu time spent up to now is      200.0 secs

     End of self-consistent calculation

          k = 0.0000 0.0000 0.0000 (  4517 PWs)   bands (ev):

   -19.4413 -12.6969  -7.6120  -7.4206  -7.0911   0.3271   1.6952   1.7913
     1.8574

          k = 0.0250 0.0000 0.0000 (  4529 PWs)   bands (ev):

   -19.4307 -12.6874  -7.5983  -7.4509  -7.1062   0.3402   1.7110   1.7985
     1.8705

          k = 0.0500 0.0000 0.0000 (  4545 PWs)   bands (ev):

   -19.3990 -12.6590  -7.5573  -7.5535  -7.1375   0.3794   1.7580   1.8197
     1.9097

          k = 0.0750 0.0000 0.0000 (  4545 PWs)   bands (ev):

   -19.3462 -12.6119  -7.7422  -7.4890  -7.1642   0.4445   1.8353   1.8525
     1.9748

          k = 0.1000 0.0000 0.0000 (  4521 PWs)   bands (ev):

   -19.2724 -12.5465  -8.0105  -7.3935  -7.1826   0.5349   1.8933   1.9417
     2.0657

          k = 0.1250 0.0000 0.0000 (  4521 PWs)   bands (ev):

   -19.1775 -12.4640  -8.3424  -7.2710  -7.1984   0.6499   1.9359   2.0763
     2.1817

          k = 0.1500 0.0000 0.0000 (  4529 PWs)   bands (ev):

   -19.0618 -12.3656  -8.7214  -7.2166  -7.1215   0.7885   1.9711   2.2380
     2.3226

          k = 0.1750 0.0000 0.0000 (  4521 PWs)   bands (ev):

   -18.9252 -12.2538  -9.1328  -7.2414  -6.9453   0.9492   1.9863   2.4263
     2.4877

          k = 0.2000 0.0000 0.0000 (  4529 PWs)   bands (ev):

   -18.7680 -12.1329  -9.5622  -7.2765  -6.7427   1.1303   1.9649   2.6404
     2.6771

          k = 0.2250 0.0000 0.0000 (  4533 PWs)   bands (ev):

   -18.5902 -12.0120  -9.9924  -7.3254  -6.5140   1.3297   1.8886   2.8759
     2.8944

          k = 0.2500 0.0000 0.0000 (  4533 PWs)   bands (ev):

   -18.3922 -11.9130 -10.3953  -7.3910  -6.2596   1.5451   1.7417   3.1184
     3.1539

          k = 0.2750 0.0000 0.0000 (  4545 PWs)   bands (ev):

   -18.1740 -11.8922 -10.7098  -7.4761  -5.9800   1.5166   1.7743   3.3788
     3.4454

          k = 0.3000 0.0000 0.0000 (  4545 PWs)   bands (ev):

   -17.9360 -12.0417 -10.8402  -7.5826  -5.6757   1.2164   2.0154   3.6643
     3.7630

          k = 0.3250 0.0000 0.0000 (  4526 PWs)   bands (ev):

   -17.6785 -12.3619 -10.7835  -7.7116  -5.3475   0.8525   2.2681   3.9781
     4.1055

          k = 0.3500 0.0000 0.0000 (  4554 PWs)   bands (ev):

   -17.4021 -12.7640 -10.6272  -7.8636  -4.9963   0.4397   2.5331   4.3229
     4.4719

          k = 0.3750 0.0000 0.0000 (  4550 PWs)   bands (ev):

   -17.1073 -13.1933 -10.4249  -8.0373  -4.6233  -0.0069   2.8130   4.7005
     4.8609

          k = 0.4000 0.0000 0.0000 (  4550 PWs)   bands (ev):

   -16.7953 -13.6271 -10.1988  -8.2309  -4.2303  -0.4742   3.1110   5.1103
     5.2692

          k = 0.4250 0.0000 0.0000 (  4538 PWs)   bands (ev):

   -16.4680 -14.0544  -9.9601  -8.4410  -3.8200  -0.9505   3.4300   5.5339
     5.6763

          k = 0.4500 0.0000 0.0000 (  4534 PWs)   bands (ev):

   -16.1302 -14.4658  -9.7174  -8.6621  -3.3983  -1.4237   3.7710   5.4413
     6.0649

          k = 0.4750 0.0000 0.0000 (  4546 PWs)   bands (ev):

   -15.8001 -14.8409  -9.4860  -8.8805  -2.9850  -1.8696   4.1262   5.0328
     6.5494

          k = 0.5000 0.0000 0.0000 (  4546 PWs)   bands (ev):

   -15.6022 -15.0539  -9.3487  -9.0134  -2.7289  -2.1368   4.3800   4.7566
     6.8845

     the Fermi energy is    -2.4328 ev

!    total energy              =     -39.20920338 Ry

     total all-electron energy =      -154.737406 Ry
     estimated scf accuracy    <          7.1E-09 Ry
     smearing contrib. (-TS)   =      -0.00000472 Ry
     internal energy E=F+TS    =     -39.20919866 Ry

     The total energy is F=E-TS. E is the sum of the following terms:
     one-electron contribution =     -68.15906690 Ry
     hartree contribution      =      35.80349851 Ry
     xc contribution           =      -9.65035280 Ry
     ewald contribution        =      16.10714253 Ry
     one-center paw contrib.   =     -13.31042000 Ry

     convergence has been achieved in   8 iterations

     negative rho (up, down):  1.657E-04 0.000E+00

     Forces acting on atoms (cartesian axes, Ry/au):

     atom    1 type  1   force =    -0.01208359    0.00276463    0.00000000
     atom    2 type  1   force =     0.01207625   -0.00271614    0.00000000
     atom    3 type  2   force =    -0.00693493    0.00023157    0.00000000
     atom    4 type  2   force =     0.00694227   -0.00028005    0.00000000

     Total force =     0.020082     Total SCF correction =     0.000143
     Energy error            =      1.1E-03
     Gradient error          =      1.2E-02

     number of scf cycles    =   8
     number of bfgs steps    =   5

     energy   old            =     -39.2080796813 Ry
     energy   new            =     -39.2092033768 Ry

     CASE: energy  _new < energy  _old

     new trust radius        =       0.0127296502 bohr
     new conv_thr            =       0.0000000112 Ry


ATOMIC_POSITIONS (angstrom)
C            -0.0836456842        5.0043982497        0.0000000000
C             1.1133161890        5.6555427845        0.0000000000
H            -0.0584795476        3.9062698114        0.0000000000
H             1.0888090428        6.7537891544        0.0000000000



     Writing output data file ./polyene.save/
     NEW-OLD atomic charge density approx. for the potential

     Check: negative core charge=   -0.000012

     negative rho (up, down):  1.656E-04 0.000E+00

     total cpu time spent up to now is      200.9 secs

     Self-consistent Calculation

     iteration #  1     ecut=    40.00 Ry     beta= 0.70
     Davidson diagonalization with overlap
     ethr =  1.00E-06,  avg # of iterations =  4.8

     negative rho (up, down):  1.644E-04 0.000E+00

     total cpu time spent up to now is      203.2 secs

     total energy              =     -39.20942993 Ry
     estimated scf accuracy    <       0.00002828 Ry

     iteration #  2     ecut=    40.00 Ry     beta= 0.70
     Davidson diagonalization with overlap
     ethr =  2.83E-07,  avg # of iterations =  2.0

     negative rho (up, down):  1.644E-04 0.000E+00

     total cpu time spent up to now is      204.7 secs

     total energy              =     -39.20943341 Ry
     estimated scf accuracy    <       0.00000114 Ry

     iteration #  3     ecut=    40.00 Ry     beta= 0.70
     Davidson diagonalization with overlap
     ethr =  1.14E-08,  avg # of iterations =  6.5

     negative rho (up, down):  1.647E-04 0.000E+00

     total cpu time spent up to now is      209.2 secs

     total energy              =     -39.20943629 Ry
     estimated scf accuracy    <       0.00000033 Ry

     iteration #  4     ecut=    40.00 Ry     beta= 0.70
     Davidson diagonalization with overlap
     ethr =  3.28E-09,  avg # of iterations =  1.8

     negative rho (up, down):  1.652E-04 0.000E+00

     total cpu time spent up to now is      211.0 secs

     total energy              =     -39.20943633 Ry
     estimated scf accuracy    <       0.00000007 Ry

     iteration #  5     ecut=    40.00 Ry     beta= 0.70
     Davidson diagonalization with overlap
     ethr =  7.10E-10,  avg # of iterations =  4.6

     negative rho (up, down):  1.650E-04 0.000E+00

     total cpu time spent up to now is      213.3 secs

     total energy              =     -39.20943635 Ry
     estimated scf accuracy    <       0.00000012 Ry

     iteration #  6     ecut=    40.00 Ry     beta= 0.70
     Davidson diagonalization with overlap
     ethr =  7.10E-10,  avg # of iterations =  2.0

     negative rho (up, down):  1.651E-04 0.000E+00

     total cpu time spent up to now is      214.9 secs

     End of self-consistent calculation

          k = 0.0000 0.0000 0.0000 (  4517 PWs)   bands (ev):

   -19.4570 -12.6869  -7.6296  -7.4419  -7.0995   0.3288   1.6851   1.8056
     1.8575

          k = 0.0250 0.0000 0.0000 (  4529 PWs)   bands (ev):

   -19.4464 -12.6773  -7.6159  -7.4771  -7.1095   0.3419   1.7009   1.8129
     1.8706

          k = 0.0500 0.0000 0.0000 (  4545 PWs)   bands (ev):

   -19.4148 -12.6488  -7.5899  -7.5748  -7.1299   0.3811   1.7481   1.8341
     1.9098

          k = 0.0750 0.0000 0.0000 (  4545 PWs)   bands (ev):

   -19.3620 -12.6016  -7.7861  -7.5065  -7.1480   0.4462   1.8256   1.8671
     1.9749

          k = 0.1000 0.0000 0.0000 (  4521 PWs)   bands (ev):

   -19.2882 -12.5360  -8.0577  -7.4109  -7.1619   0.5365   1.9081   1.9323
     2.0657

          k = 0.1250 0.0000 0.0000 (  4521 PWs)   bands (ev):

   -19.1935 -12.4532  -8.3903  -7.2881  -7.1756   0.6515   1.9509   2.0672
     2.1816

          k = 0.1500 0.0000 0.0000 (  4529 PWs)   bands (ev):

   -19.0778 -12.3546  -8.7689  -7.1929  -7.1385   0.7899   1.9862   2.2292
     2.3223

          k = 0.1750 0.0000 0.0000 (  4521 PWs)   bands (ev):

   -18.9413 -12.2425  -9.1793  -7.2174  -6.9621   0.9504   2.0012   2.4179
     2.4873

          k = 0.2000 0.0000 0.0000 (  4529 PWs)   bands (ev):

   -18.7842 -12.1213  -9.6073  -7.2526  -6.7592   1.1313   1.9791   2.6326
     2.6761

          k = 0.2250 0.0000 0.0000 (  4533 PWs)   bands (ev):

   -18.6066 -12.0007 -10.0356  -7.3019  -6.5302   1.3305   1.9013   2.8709
     2.8907

          k = 0.2500 0.0000 0.0000 (  4533 PWs)   bands (ev):

   -18.4087 -11.9035 -10.4348  -7.3683  -6.2753   1.5457   1.7521   3.1179
     3.1460

          k = 0.2750 0.0000 0.0000 (  4545 PWs)   bands (ev):

   -18.1906 -11.8899 -10.7403  -7.4542  -5.9952   1.5238   1.7747   3.3787
     3.4373

          k = 0.3000 0.0000 0.0000 (  4545 PWs)   bands (ev):

   -17.9527 -12.0535 -10.8549  -7.5618  -5.6903   1.2200   2.0157   3.6646
     3.7550

          k = 0.3250 0.0000 0.0000 (  4526 PWs)   bands (ev):

   -17.6952 -12.3843 -10.7860  -7.6921  -5.3614   0.8525   2.2684   3.9789
     4.0976

          k = 0.3500 0.0000 0.0000 (  4554 PWs)   bands (ev):

   -17.4187 -12.7911 -10.6233  -7.8456  -5.0093   0.4363   2.5337   4.3244
     4.4641

          k = 0.3750 0.0000 0.0000 (  4550 PWs)   bands (ev):

   -17.1238 -13.2226 -10.4171  -8.0210  -4.6353  -0.0137   2.8141   4.7029
     4.8531

          k = 0.4000 0.0000 0.0000 (  4550 PWs)   bands (ev):

   -16.8112 -13.6579 -10.1882  -8.2165  -4.2408  -0.4843   3.1130   5.1145
     5.2611

          k = 0.4250 0.0000 0.0000 (  4538 PWs)   bands (ev):

   -16.4827 -14.0868  -9.9466  -8.4290  -3.8283  -0.9642   3.4336   5.5450
     5.6653

          k = 0.4500 0.0000 0.0000 (  4534 PWs)   bands (ev):

   -16.1421 -14.5012  -9.7004  -8.6536  -3.4029  -1.4420   3.7772   5.4430
     6.0634

          k = 0.4750 0.0000 0.0000 (  4546 PWs)   bands (ev):

   -15.8046 -14.8838  -9.4624  -8.8786  -2.9814  -1.8965   4.1384   5.0259
     6.5512

          k = 0.5000 0.0000 0.0000 (  4546 PWs)   bands (ev):

   -15.5916 -15.1118  -9.3133  -9.0233  -2.7087  -2.1805   4.4101   4.7313
     6.8890

     the Fermi energy is    -2.4446 ev

!    total energy              =     -39.20943636 Ry

     total all-electron energy =      -154.737639 Ry
     estimated scf accuracy    <          9.8E-10 Ry
     smearing contrib. (-TS)   =      -0.00001241 Ry
     internal energy E=F+TS    =     -39.20942395 Ry

     The total energy is F=E-TS. E is the sum of the following terms:
     one-electron contribution =     -68.19997861 Ry
     hartree contribution      =      35.82141976 Ry
     xc contribution           =      -9.65088096 Ry
[...]

   -17.4259 -12.8136 -10.6245  -7.8466  -5.0140   0.4303   2.5385   4.3296
     4.4676

          k = 0.3750 0.0000 0.0000 (  4550 PWs)   bands (ev):

   -17.1301 -13.2463 -10.4165  -8.0241  -4.6388  -0.0220   2.8208   4.7097
     4.8572

          k = 0.4000 0.0000 0.0000 (  4550 PWs)   bands (ev):

   -16.8161 -13.6831 -10.1855  -8.2220  -4.2427  -0.4951   3.1223   5.1243
     5.2660

          k = 0.4250 0.0000 0.0000 (  4538 PWs)   bands (ev):

   -16.4851 -14.1144  -9.9411  -8.4377  -3.8277  -0.9782   3.4463   5.5700
     5.6680

          k = 0.4500 0.0000 0.0000 (  4534 PWs)   bands (ev):

   -16.1395 -14.5338  -9.6899  -8.6676  -3.3976  -1.4612   3.7954   5.4569
     6.0660

          k = 0.4750 0.0000 0.0000 (  4546 PWs)   bands (ev):

   -15.7883 -14.9299  -9.4395  -8.9052  -2.9644  -1.9277   4.1690   5.0196
     6.5701

          k = 0.5000 0.0000 0.0000 (  4546 PWs)   bands (ev):

   -15.5402 -15.1932  -9.2525  -9.0879  -2.6606  -2.2430   4.4985   4.6660
     6.9261

     the Fermi energy is    -2.4518 ev

!    total energy              =     -39.20977615 Ry

     total all-electron energy =      -154.737979 Ry
     estimated scf accuracy    <          7.3E-10 Ry
     smearing contrib. (-TS)   =      -0.00005098 Ry
     internal energy E=F+TS    =     -39.20972517 Ry

     The total energy is F=E-TS. E is the sum of the following terms:
     one-electron contribution =     -68.24429286 Ry
     hartree contribution      =      35.84225173 Ry
     xc contribution           =      -9.65266227 Ry
     ewald contribution        =      16.15546154 Ry
     one-center paw contrib.   =     -13.31048330 Ry

     convergence has been achieved in   7 iterations

     negative rho (up, down):  1.665E-04 0.000E+00

     Forces acting on atoms (cartesian axes, Ry/au):

     atom    1 type  1   force =    -0.00303387   -0.00562731    0.00000000
     atom    2 type  1   force =     0.00304528    0.00563875    0.00000000
     atom    3 type  2   force =    -0.00225073    0.00142613    0.00000000
     atom    4 type  2   force =     0.00223931   -0.00143756    0.00000000

     Total force =     0.009804     Total SCF correction =     0.000047
     Energy error            =      1.7E-04
     Gradient error          =      5.6E-03

     number of scf cycles    =  11
     number of bfgs steps    =   8

     energy   old            =     -39.2096037797 Ry
     energy   new            =     -39.2097761503 Ry

     CASE: energy  _new < energy  _old

     new trust radius        =       0.0206968847 bohr
     new conv_thr            =       0.0000000017 Ry


ATOMIC_POSITIONS (angstrom)
C            -0.0889025138        5.0049099847        0.0000000000
C             1.1184996512        5.6550652480        0.0000000000
H            -0.0878085986        3.9083240957        0.0000000000
H             1.1182114612        6.7517006716        0.0000000000



     Writing output data file ./polyene.save/
     NEW-OLD atomic charge density approx. for the potential

     Check: negative core charge=   -0.000012

     negative rho (up, down):  1.664E-04 0.000E+00

     total cpu time spent up to now is      246.6 secs

     Self-consistent Calculation

     iteration #  1     ecut=    40.00 Ry     beta= 0.70
     Davidson diagonalization with overlap
     ethr =  1.00E-06,  avg # of iterations =  5.6

     negative rho (up, down):  1.674E-04 0.000E+00

     total cpu time spent up to now is      250.1 secs

     total energy              =     -39.20983781 Ry
     estimated scf accuracy    <       0.00005316 Ry

     iteration #  2     ecut=    40.00 Ry     beta= 0.70
     Davidson diagonalization with overlap
     ethr =  5.32E-07,  avg # of iterations =  2.0

     negative rho (up, down):  1.677E-04 0.000E+00

     total cpu time spent up to now is      252.1 secs

     total energy              =     -39.20984423 Ry
     estimated scf accuracy    <       0.00000174 Ry

     iteration #  3     ecut=    40.00 Ry     beta= 0.70
     Davidson diagonalization with overlap
     ethr =  1.74E-08,  avg # of iterations =  5.9

     negative rho (up, down):  1.676E-04 0.000E+00

     total cpu time spent up to now is      254.8 secs

     total energy              =     -39.20984763 Ry
     estimated scf accuracy    <       0.00000043 Ry

     iteration #  4     ecut=    40.00 Ry     beta= 0.70
     Davidson diagonalization with overlap
     ethr =  4.32E-09,  avg # of iterations =  2.5

     negative rho (up, down):  1.676E-04 0.000E+00

     total cpu time spent up to now is      256.5 secs

     total energy              =     -39.20984774 Ry
     estimated scf accuracy    <       0.00000015 Ry

     iteration #  5     ecut=    40.00 Ry     beta= 0.70
     Davidson diagonalization with overlap
     ethr =  1.48E-09,  avg # of iterations =  4.0

     negative rho (up, down):  1.676E-04 0.000E+00

     total cpu time spent up to now is      258.4 secs

     total energy              =     -39.20984778 Ry
     estimated scf accuracy    <       0.00000007 Ry

     iteration #  6     ecut=    40.00 Ry     beta= 0.70
     Davidson diagonalization with overlap
     ethr =  7.49E-10,  avg # of iterations =  1.9

     negative rho (up, down):  1.676E-04 0.000E+00

     total cpu time spent up to now is      259.9 secs

     End of self-consistent calculation

          k = 0.0000 0.0000 0.0000 (  4517 PWs)   bands (ev):

   -19.4622 -12.6984  -7.6333  -7.4530  -7.1055   0.3281   1.6919   1.8075
     1.8594

          k = 0.0250 0.0000 0.0000 (  4529 PWs)   bands (ev):

   -19.4517 -12.6889  -7.6196  -7.4894  -7.1143   0.3412   1.7078   1.8148
     1.8725

          k = 0.0500 0.0000 0.0000 (  4545 PWs)   bands (ev):

   -19.4200 -12.6604  -7.6045  -7.5785  -7.1324   0.3804   1.7549   1.8360
     1.9117

          k = 0.0750 0.0000 0.0000 (  4545 PWs)   bands (ev):

   -19.3672 -12.6132  -7.8022  -7.5101  -7.1488   0.4455   1.8325   1.8689
     1.9769

          k = 0.1000 0.0000 0.0000 (  4521 PWs)   bands (ev):

   -19.2933 -12.5477  -8.0745  -7.4144  -7.1621   0.5359   1.9097   1.9392
     2.0678

          k = 0.1250 0.0000 0.0000 (  4521 PWs)   bands (ev):

   -19.1985 -12.4650  -8.4071  -7.2916  -7.1758   0.6509   1.9522   2.0741
     2.1840

          k = 0.1500 0.0000 0.0000 (  4529 PWs)   bands (ev):

   -19.0827 -12.3665  -8.7854  -7.1935  -7.1417   0.7894   1.9872   2.2362
     2.3249

          k = 0.1750 0.0000 0.0000 (  4521 PWs)   bands (ev):

   -18.9461 -12.2545  -9.1952  -7.2188  -6.9651   0.9502   2.0016   2.4250
     2.4902

          k = 0.2000 0.0000 0.0000 (  4529 PWs)   bands (ev):

   -18.7888 -12.1338  -9.6225  -7.2551  -6.7620   1.1314   1.9787   2.6397
     2.6795

          k = 0.2250 0.0000 0.0000 (  4533 PWs)   bands (ev):

   -18.6109 -12.0139 -10.0497  -7.3055  -6.5327   1.3310   1.8998   2.8773
     2.8955

          k = 0.2500 0.0000 0.0000 (  4533 PWs)   bands (ev):

   -18.4126 -11.9183 -10.4471  -7.3732  -6.2775   1.5468   1.7492   3.1223
     3.1535

          k = 0.2750 0.0000 0.0000 (  4545 PWs)   bands (ev):

   -18.1941 -11.9076 -10.7494  -7.4607  -5.9969   1.5194   1.7766   3.3835
     3.4454

          k = 0.3000 0.0000 0.0000 (  4545 PWs)   bands (ev):

   -17.9556 -12.0738 -10.8610  -7.5699  -5.6914   1.2139   2.0189   3.6701
     3.7635

          k = 0.3250 0.0000 0.0000 (  4526 PWs)   bands (ev):

   -17.6974 -12.4055 -10.7910  -7.7019  -5.3618   0.8447   2.2732   3.9854
     4.1066

          k = 0.3500 0.0000 0.0000 (  4554 PWs)   bands (ev):

   -17.4199 -12.8129 -10.6277  -7.8574  -5.0087   0.4266   2.5406   4.3321
     4.4738

          k = 0.3750 0.0000 0.0000 (  4550 PWs)   bands (ev):

   -17.1235 -13.2454 -10.4205  -8.0351  -4.6332  -0.0253   2.8238   4.7124
     4.8637

          k = 0.4000 0.0000 0.0000 (  4550 PWs)   bands (ev):

   -16.8086 -13.6826 -10.1898  -8.2334  -4.2366  -0.4985   3.1261   5.1279
     5.2733

          k = 0.4250 0.0000 0.0000 (  4538 PWs)   bands (ev):

   -16.4763 -14.1151  -9.9452  -8.4498  -3.8207  -0.9821   3.4513   5.5767
     5.6770

          k = 0.4500 0.0000 0.0000 (  4534 PWs)   bands (ev):

   -16.1281 -14.5369  -9.6929  -8.6810  -3.3887  -1.4667   3.8020   5.4642
     6.0706

          k = 0.4750 0.0000 0.0000 (  4546 PWs)   bands (ev):

   -15.7701 -14.9399  -9.4384  -8.9228  -2.9500  -1.9387   4.1796   5.0196
     6.5814

          k = 0.5000 0.0000 0.0000 (  4546 PWs)   bands (ev):

   -15.4972 -15.2279  -9.2232  -9.1337  -2.6259  -2.2741   4.5484   4.6260
     6.9505

     the Fermi energy is    -2.4500 ev

!    total energy              =     -39.20984779 Ry

     total all-electron energy =      -154.738051 Ry
     estimated scf accuracy    <          1.1E-09 Ry
     smearing contrib. (-TS)   =      -0.00010099 Ry
     internal energy E=F+TS    =     -39.20974680 Ry

     The total energy is F=E-TS. E is the sum of the following terms:
     one-electron contribution =     -68.24324571 Ry
     hartree contribution      =      35.84210133 Ry
     xc contribution           =      -9.65300456 Ry
     ewald contribution        =      16.15484887 Ry
     one-center paw contrib.   =     -13.31044673 Ry

     convergence has been achieved in   6 iterations

     negative rho (up, down):  1.676E-04 0.000E+00

     Forces acting on atoms (cartesian axes, Ry/au):

     atom    1 type  1   force =    -0.00071944   -0.00220040    0.00000000
     atom    2 type  1   force =     0.00073726    0.00215906    0.00000000
     atom    3 type  2   force =    -0.00012066   -0.00001259    0.00000000
     atom    4 type  2   force =     0.00010284    0.00005392    0.00000000

     Total force =     0.003255     Total SCF correction =     0.000055
     Energy error            =      7.2E-05
     Gradient error          =      2.2E-03

     number of scf cycles    =  12
     number of bfgs steps    =   9

     energy   old            =     -39.2097761503 Ry
     energy   new            =     -39.2098477935 Ry

     CASE: energy  _new < energy  _old

     new trust radius        =       0.0015931680 bohr
     new conv_thr            =       0.0000000010 Ry


ATOMIC_POSITIONS (angstrom)
C            -0.0892667335        5.0044829983        0.0000000000
C             1.1188731877        5.6554736844        0.0000000000
H            -0.0886398385        3.9081833686        0.0000000000
H             1.1190333843        6.7518599486        0.0000000000



     Writing output data file ./polyene.save/
     NEW-OLD atomic charge density approx. for the potential

     Check: negative core charge=   -0.000012

     negative rho (up, down):  1.675E-04 0.000E+00

     total cpu time spent up to now is      260.8 secs

     Self-consistent Calculation

     iteration #  1     ecut=    40.00 Ry     beta= 0.70
     Davidson diagonalization with overlap
     ethr =  1.00E-06,  avg # of iterations =  2.0

     Threshold (ethr) on eigenvalues was too large:
     Diagonalizing with lowered threshold

     Davidson diagonalization with overlap
     ethr =  5.09E-09,  avg # of iterations =  6.1

     negative rho (up, down):  1.677E-04 0.000E+00

     total cpu time spent up to now is      266.6 secs

     total energy              =     -39.20985050 Ry
     estimated scf accuracy    <       0.00000129 Ry

     iteration #  2     ecut=    40.00 Ry     beta= 0.70
     Davidson diagonalization with overlap
     ethr =  1.29E-08,  avg # of iterations =  1.7

     negative rho (up, down):  1.678E-04 0.000E+00

     total cpu time spent up to now is      268.1 secs

     total energy              =     -39.20985063 Ry
     estimated scf accuracy    <       0.00000003 Ry

     iteration #  3     ecut=    40.00 Ry     beta= 0.70
     Davidson diagonalization with overlap
     ethr =  2.77E-10,  avg # of iterations =  7.4

     negative rho (up, down):  1.677E-04 0.000E+00

     total cpu time spent up to now is      271.2 secs

     total energy              =     -39.20985071 Ry
     estimated scf accuracy    <       0.00000003 Ry

     iteration #  4     ecut=    40.00 Ry     beta= 0.70
     Davidson diagonalization with overlap
     ethr =  2.77E-10,  avg # of iterations =  1.1

     negative rho (up, down):  1.677E-04 0.000E+00

     total cpu time spent up to now is      272.6 secs

     total energy              =     -39.20985071 Ry
     estimated scf accuracy    <          8.3E-09 Ry

     iteration #  5     ecut=    40.00 Ry     beta= 0.70
     Davidson diagonalization with overlap
     ethr =  8.32E-11,  avg # of iterations =  2.1

     negative rho (up, down):  1.677E-04 0.000E+00

     total cpu time spent up to now is      274.2 secs

     End of self-consistent calculation

          k = 0.0000 0.0000 0.0000 (  4517 PWs)   bands (ev):

   -19.4590 -12.7001  -7.6299  -7.4432  -7.1108   0.3277   1.6935   1.8042
     1.8592

          k = 0.0250 0.0000 0.0000 (  4529 PWs)   bands (ev):

   -19.4484 -12.6906  -7.6162  -7.4793  -7.1200   0.3408   1.7093   1.8115
     1.8723

          k = 0.0500 0.0000 0.0000 (  4545 PWs)   bands (ev):

   -19.4167 -12.6621  -7.5940  -7.5751  -7.1385   0.3801   1.7565   1.8326
     1.9116

          k = 0.0750 0.0000 0.0000 (  4545 PWs)   bands (ev):

   -19.3639 -12.6149  -7.7918  -7.5067  -7.1550   0.4452   1.8340   1.8655
     1.9768

          k = 0.1000 0.0000 0.0000 (  4521 PWs)   bands (ev):

   -19.2900 -12.5494  -8.0645  -7.4110  -7.1682   0.5356   1.9062   1.9407
     2.0677

          k = 0.1250 0.0000 0.0000 (  4521 PWs)   bands (ev):

   -19.1951 -12.4667  -8.3975  -7.2882  -7.1816   0.6506   1.9487   2.0755
     2.1839

          k = 0.1500 0.0000 0.0000 (  4529 PWs)   bands (ev):

   -19.0793 -12.3683  -8.7762  -7.1992  -7.1384   0.7891   1.9835   2.2376
     2.3249

          k = 0.1750 0.0000 0.0000 (  4521 PWs)   bands (ev):

   -18.9426 -12.2564  -9.1865  -7.2243  -6.9618   0.9499   1.9979   2.4263
     2.4901

          k = 0.2000 0.0000 0.0000 (  4529 PWs)   bands (ev):

   -18.7853 -12.1357  -9.6142  -7.2603  -6.7587   1.1311   1.9751   2.6410
     2.6795

          k = 0.2250 0.0000 0.0000 (  4533 PWs)   bands (ev):

   -18.6073 -12.0158 -10.0418  -7.3106  -6.5294   1.3308   1.8964   2.8784
     2.8957

          k = 0.2500 0.0000 0.0000 (  4533 PWs)   bands (ev):

   -18.4090 -11.9200 -10.4399  -7.3781  -6.2743   1.5466   1.7461   3.1226
     3.1544

          k = 0.2750 0.0000 0.0000 (  4545 PWs)   bands (ev):

   -18.1904 -11.9081 -10.7438  -7.4653  -5.9937   1.5168   1.7764   3.3837
     3.4464

          k = 0.3000 0.0000 0.0000 (  4545 PWs)   bands (ev):

   -17.9518 -12.0721 -10.8581  -7.5743  -5.6883   1.2119   2.0187   3.6703
     3.7646

          k = 0.3250 0.0000 0.0000 (  4526 PWs)   bands (ev):

   -17.6935 -12.4021 -10.7901  -7.7061  -5.3586   0.8432   2.2731   3.9855
     4.1077

          k = 0.3500 0.0000 0.0000 (  4554 PWs)   bands (ev):

   -17.4159 -12.8088 -10.6278  -7.8614  -5.0056   0.4257   2.5405   4.3321
     4.4748

          k = 0.3750 0.0000 0.0000 (  4550 PWs)   bands (ev):

   -17.1193 -13.2412 -10.4212  -8.0388  -4.6301  -0.0258   2.8236   4.7125
     4.8647

          k = 0.4000 0.0000 0.0000 (  4550 PWs)   bands (ev):

   -16.8043 -13.6784 -10.1909  -8.2369  -4.2336  -0.4986   3.1258   5.1276
     5.2743

          k = 0.4250 0.0000 0.0000 (  4538 PWs)   bands (ev):

   -16.4716 -14.1111  -9.9465  -8.4530  -3.8177  -0.9820   3.4509   5.5768
     5.6784

          k = 0.4500 0.0000 0.0000 (  4534 PWs)   bands (ev):

   -16.1230 -14.5333  -9.6945  -8.6841  -3.3855  -1.4666   3.8016   5.4635
     6.0697

          k = 0.4750 0.0000 0.0000 (  4546 PWs)   bands (ev):

   -15.7641 -14.9372  -9.4399  -8.9259  -2.9460  -1.9392   4.1792   5.0187
     6.5814

          k = 0.5000 0.0000 0.0000 (  4546 PWs)   bands (ev):

   -15.4872 -15.2292  -9.2224  -9.1391  -2.6180  -2.2785   4.5508   4.6223
     6.9522

     the Fermi energy is    -2.4483 ev

!    total energy              =     -39.20985071 Ry

     total all-electron energy =      -154.738054 Ry
     estimated scf accuracy    <          3.1E-10 Ry
     smearing contrib. (-TS)   =      -0.00011321 Ry
     internal energy E=F+TS    =     -39.20973750 Ry

     The total energy is F=E-TS. E is the sum of the following terms:
     one-electron contribution =     -68.23092971 Ry
     hartree contribution      =      35.83627796 Ry
     xc contribution           =      -9.65254244 Ry
     ewald contribution        =      16.14787575 Ry
     one-center paw contrib.   =     -13.31041906 Ry

     convergence has been achieved in   5 iterations

     negative rho (up, down):  1.677E-04 0.000E+00

     Forces acting on atoms (cartesian axes, Ry/au):

     atom    1 type  1   force =     0.00009173   -0.00061863    0.00000000
     atom    2 type  1   force =    -0.00007975    0.00060866    0.00000000
     atom    3 type  2   force =     0.00000760   -0.00027089    0.00000000
     atom    4 type  2   force =    -0.00001959    0.00028085    0.00000000

     Total force =     0.000960     Total SCF correction =     0.000016
     Energy error            =      2.9E-06
     Gradient error          =      6.2E-04

     bfgs converged in  13 scf cycles and  10 bfgs steps
     (criteria: energy <  1.0E-04 Ry, force <  1.0E-03 Ry/Bohr)

     End of BFGS Geometry Optimization

     Final energy   =     -39.2098507119 Ry

     File ./polyene.bfgs deleted, as requested
Begin final coordinates

ATOMIC_POSITIONS (angstrom)
C            -0.0892667335        5.0044829983        0.0000000000
C             1.1188731877        5.6554736844        0.0000000000
H            -0.0886398385        3.9081833686        0.0000000000
H             1.1190333843        6.7518599486        0.0000000000
End final coordinates



     Writing output data file ./polyene.save/

     init_run     :      1.18s CPU      1.64s WALL (       1 calls)
     electrons    :    269.01s CPU    260.64s WALL (      13 calls)
     update_pot   :      3.75s CPU      3.88s WALL (      12 calls)
     forces       :      5.22s CPU      5.51s WALL (      13 calls)

     Called by init_run:
     wfcinit      :      0.70s CPU      1.11s WALL (       1 calls)
     potinit      :      0.17s CPU      0.19s WALL (       1 calls)
     hinit0       :      0.26s CPU      0.26s WALL (       1 calls)

     Called by electrons:
     c_bands      :    217.96s CPU    208.85s WALL (      95 calls)
     sum_band     :     32.74s CPU     33.99s WALL (      95 calls)
     v_of_rho     :      5.33s CPU      5.33s WALL (     107 calls)
     newd         :      2.59s CPU      2.48s WALL (     107 calls)
     PAW_pot      :     13.11s CPU     12.82s WALL (     119 calls)
     mix_rho      :      0.67s CPU      0.65s WALL (      95 calls)

     Called by c_bands:
     init_us_2    :      8.47s CPU      7.77s WALL (    4536 calls)
     cegterg      :    205.64s CPU    197.24s WALL (    2031 calls)

     Called by *egterg:
     cdiaghg      :      3.00s CPU      2.35s WALL (   11174 calls)
     h_psi        :    154.48s CPU    156.47s WALL (   11504 calls)
     s_psi        :      7.29s CPU      5.86s WALL (   11504 calls)
     g_psi        :      3.44s CPU      2.59s WALL (    9452 calls)

     Called by h_psi:
     h_psi:calbec :      8.43s CPU     15.82s WALL (   11504 calls)
     vloc_psi     :    136.93s CPU    133.45s WALL (   11504 calls)
     add_vuspsi   :      7.66s CPU      5.89s WALL (   11504 calls)

     General routines
     calbec       :     11.17s CPU     20.56s WALL (   14843 calls)
     fft          :      1.02s CPU      1.02s WALL (    1333 calls)
     ffts         :      0.08s CPU      0.08s WALL (      95 calls)
     fftw         :    116.76s CPU    114.74s WALL (  159961 calls)

     Parallel routines

     PWSCF        :   4m42.03s CPU   4m34.67s WALL


   This run was terminated on:  15:26:49   5Dec2025            

=------------------------------------------------------------------------------=
   JOB DONE.
=------------------------------------------------------------------------------=
