CRYSTAL
PRIMVEC
 2.46000000000000 0.00000000000000 0.00000000000000
 0.00000000000000 8.00000000000000 0.00000000000000
 0.00000000000000 0.00000000000000 8.00000000000000
PRIMCOORD
 4 1
  6     0.00000000000000     5.00000000000000     0.00000000000000
  6     1.23000000000000     5.66000000000000     0.00000000000000
  1     0.00000000000000     3.94000000000000     0.00000000000000
  1     1.23000000000000     6.72000000000000     0.00000000000000
