CRYSTAL
PRIMVEC
 2.46000000000000 0.00000000000000 0.00000000000000
 0.00000000000000 8.00000000000000 0.00000000000000
 0.00000000000000 0.00000000000000 8.00000000000000
PRIMCOORD
 4 1
  6    -0.08926673350000     5.00448299830000     0.00000000000000
  6     1.11887318770000     5.65547368440000     0.00000000000000
  1    -0.08863983850000     3.90818336860000     0.00000000000000
  1     1.11903338430000     6.75185994860000     0.00000000000000
